
     Program PHONON v.6.1 (svn rev. 13369) starts on 17Dec2020 at 12:23:45 

     This program is part of the open-source Quantum ESPRESSO suite
     for quantum simulation of materials; please cite
         "P. Giannozzi et al., J. Phys.:Condens. Matter 21 395502 (2009);
          URL http://www.quantum-espresso.org", 
     in publications or presentations arising from this work. More details at
     http://www.quantum-espresso.org/quote

     Parallel version (MPI & OpenMP), running on      40 processor cores
     Number of MPI processes:                40
     Threads/MPI process:                     1
     R & G space division:  proc/nbgrp/npool/nimage =      40

     Reading data from directory:
     ./c.save

   Info: using nr1, nr2, nr3 values from input

   Info: using nr1, nr2, nr3 values from input

     IMPORTANT: XC functional enforced from input :
     Exchange-correlation      = PZ ( 1  1  0  0 0 0)
     Any further DFT definition will be discarded
     Please, verify this is what you really want

               file C.pz-mt.fhi.UPF: wavefunction(s)  3d renormalized
 
     Parallelization info
     --------------------
     sticks:   dense  smooth     PW     G-vecs:    dense   smooth      PW
     Min          18      18      5                  332      332      51
     Max          19      19      6                  337      337      54
     Sum         745     745    211                13371    13371    2085
 


     Dynamical matrices for ( 3, 3, 3)  uniform grid of q-points
     (   4q-points):
       N         xq(1)         xq(2)         xq(3) 
       1   0.000000000   0.000000000   0.000000000
       2  -0.333333333   0.333333333  -0.333333333
       3   0.000000000   0.666666667   0.000000000
       4   0.666666667  -0.000000000   0.666666667

     Calculation of q =    0.0000000   0.0000000   0.0000000

                                                                                

     bravais-lattice index     =            2
     lattice parameter (alat)  =       6.7034  a.u.
     unit-cell volume          =      75.3061 (a.u.)^3
     number of atoms/cell      =            2
     number of atomic types    =            1
     kinetic-energy cut-off    =     120.0000  Ry
     charge density cut-off    =     480.0000  Ry
     convergence threshold     =      1.0E-24
     beta                      =       0.7000
     number of iterations used =            4
     Exchange-correlation      = PZ ( 1  1  0  0 0 0)


     celldm(1)=    6.70343  celldm(2)=    0.00000  celldm(3)=    0.00000
     celldm(4)=    0.00000  celldm(5)=    0.00000  celldm(6)=    0.00000

     crystal axes: (cart. coord. in units of alat)
               a(1) = ( -0.5000  0.0000  0.5000 )  
               a(2) = (  0.0000  0.5000  0.5000 )  
               a(3) = ( -0.5000  0.5000  0.0000 )  

     reciprocal axes: (cart. coord. in units 2 pi/alat)
               b(1) = ( -1.0000 -1.0000  1.0000 )  
               b(2) = (  1.0000  1.0000  1.0000 )  
               b(3) = ( -1.0000  1.0000 -1.0000 )  


     Atoms inside the unit cell: 

     Cartesian axes

     site n.  atom      mass           positions (alat units)
        1     C   12.0110   tau(    1) = (    0.00000    0.00000    0.00000  )
        2     C   12.0110   tau(    2) = (   -0.25000    0.25000    0.25000  )

     Computing dynamical matrix for 
                    q = (   0.0000000   0.0000000   0.0000000 )
 
     49 Sym.Ops. (with q -> -q+G )


     G cutoff =  546.3552  (    333 G-vectors)     FFT grid: ( 36, 36, 36)
     number of k points=     4

     PseudoPot. # 1 for  C read from file:
     ../C.pz-mt.fhi.UPF
     MD5 check sum: b7c38bc33a0cf75f44be89b84470f298
     Pseudo is Norm-conserving, Zval =  4.0
     Generated using FHI98PP, converted with fhi2upf.x v.5.0.2
     Using radial grid of  461 points,  2 beta functions with: 
                l(1) =   0
                l(2) =   1

     Mode symmetry, O_h (m-3m)  point group:


     Electric field:
     Dielectric constant
     Born effective charges in two ways 


     Atomic displacements:
     There are   2 irreducible representations

     Representation     1      3 modes -T_2g G_25' G_5+  To be done

     Representation     2      3 modes -T_1u G_15  G_4-  To be done



     Alpha used in Ewald sum =   2.8000
     PHONON       :     0.32s CPU         0.41s WALL


     Electric Fields Calculation

      iter #   1 total cpu time :     0.9 secs   av.it.:   5.6
      thresh= 1.000E-02 alpha_mix =  0.700 |ddv_scf|^2 =  1.271E-08

      iter #   2 total cpu time :     1.4 secs   av.it.:   9.3
      thresh= 1.127E-05 alpha_mix =  0.700 |ddv_scf|^2 =  1.400E-10

      iter #   3 total cpu time :     1.8 secs   av.it.:   9.3
      thresh= 1.183E-06 alpha_mix =  0.700 |ddv_scf|^2 =  7.514E-12

      iter #   4 total cpu time :     2.2 secs   av.it.:   9.5
      thresh= 2.741E-07 alpha_mix =  0.700 |ddv_scf|^2 =  1.174E-14

      iter #   5 total cpu time :     2.5 secs   av.it.:   9.3
      thresh= 1.083E-08 alpha_mix =  0.700 |ddv_scf|^2 =  3.973E-18

      iter #   6 total cpu time :     2.7 secs   av.it.:   9.4
      thresh= 1.993E-10 alpha_mix =  0.700 |ddv_scf|^2 =  1.550E-20

      iter #   7 total cpu time :     2.9 secs   av.it.:   9.3
      thresh= 1.245E-11 alpha_mix =  0.700 |ddv_scf|^2 =  1.948E-23

      iter #   8 total cpu time :     5.5 secs   av.it.:   8.5
      thresh= 4.413E-13 alpha_mix =  0.700 |ddv_scf|^2 =  7.153E-26

     End of electric fields calculation

          Dielectric constant in cartesian axis 

          (       9.272395012       0.000000000       0.000000000 )
          (       0.000000000       9.272395012      -0.000000000 )
          (       0.000000000      -0.000000000       9.272395012 )

          Effective charges (d Force / dE) in cartesian axis

           atom      1   C  
      Ex  (       -0.89498        0.00000        0.00000 )
      Ey  (        0.00000       -0.89498        0.00000 )
      Ez  (        0.00000        0.00000       -0.89498 )
           atom      2   C  
      Ex  (       -0.89498        0.00000        0.00000 )
      Ey  (        0.00000       -0.89498       -0.00000 )
      Ez  (        0.00000        0.00000       -0.89498 )


     Representation #  1 modes #   1  2  3

     Self-consistent Calculation

      iter #   1 total cpu time :     6.3 secs   av.it.:   5.6
      thresh= 1.000E-02 alpha_mix =  0.700 |ddv_scf|^2 =  1.381E-07

      iter #   2 total cpu time :     6.9 secs   av.it.:   9.2
      thresh= 3.717E-05 alpha_mix =  0.700 |ddv_scf|^2 =  4.143E-10

      iter #   3 total cpu time :     7.1 secs   av.it.:   9.3
      thresh= 2.035E-06 alpha_mix =  0.700 |ddv_scf|^2 =  5.721E-12

      iter #   4 total cpu time :     8.2 secs   av.it.:   8.8
      thresh= 2.392E-07 alpha_mix =  0.700 |ddv_scf|^2 =  8.276E-15

      iter #   5 total cpu time :     9.9 secs   av.it.:   9.2
      thresh= 9.097E-09 alpha_mix =  0.700 |ddv_scf|^2 =  6.583E-18

      iter #   6 total cpu time :    11.8 secs   av.it.:   9.7
      thresh= 2.566E-10 alpha_mix =  0.700 |ddv_scf|^2 =  1.579E-19

      iter #   7 total cpu time :    12.2 secs   av.it.:   9.6
      thresh= 3.974E-11 alpha_mix =  0.700 |ddv_scf|^2 =  1.546E-22

      iter #   8 total cpu time :    12.5 secs   av.it.:   9.2
      thresh= 1.243E-12 alpha_mix =  0.700 |ddv_scf|^2 =  1.193E-23

      iter #   9 total cpu time :    12.7 secs   av.it.:   9.3
      thresh= 3.454E-13 alpha_mix =  0.700 |ddv_scf|^2 =  2.872E-27

     End of self-consistent calculation

     Convergence has been achieved 


     Representation #  2 modes #   4  5  6

     Self-consistent Calculation

      iter #   1 total cpu time :    13.0 secs   av.it.:   6.5
      thresh= 1.000E-02 alpha_mix =  0.700 |ddv_scf|^2 =  9.550E-08

      iter #   2 total cpu time :    14.3 secs   av.it.:   9.8
      thresh= 3.090E-05 alpha_mix =  0.700 |ddv_scf|^2 =  1.034E-10

      iter #   3 total cpu time :    15.7 secs   av.it.:   9.5
      thresh= 1.017E-06 alpha_mix =  0.700 |ddv_scf|^2 =  8.946E-12

      iter #   4 total cpu time :    16.4 secs   av.it.:   9.4
      thresh= 2.991E-07 alpha_mix =  0.700 |ddv_scf|^2 =  7.044E-15

      iter #   5 total cpu time :    16.7 secs   av.it.:  10.2
      thresh= 8.393E-09 alpha_mix =  0.700 |ddv_scf|^2 =  1.615E-18

      iter #   6 total cpu time :    16.9 secs   av.it.:  10.3
      thresh= 1.271E-10 alpha_mix =  0.700 |ddv_scf|^2 =  5.020E-20

      iter #   7 total cpu time :    17.1 secs   av.it.:   9.2
      thresh= 2.241E-11 alpha_mix =  0.700 |ddv_scf|^2 =  2.831E-24

      iter #   8 total cpu time :    17.3 secs   av.it.:   8.4
      thresh= 1.682E-13 alpha_mix =  0.700 |ddv_scf|^2 =  2.700E-25

     End of self-consistent calculation

     Convergence has been achieved 
 
     Number of q in the star =    1
     List of q in the star:
          1   0.000000000   0.000000000   0.000000000

          Dielectric constant in cartesian axis 

          (       9.272395012       0.000000000       0.000000000 )
          (       0.000000000       9.272395012      -0.000000000 )
          (       0.000000000      -0.000000000       9.272395012 )

          Effective charges (d Force / dE) in cartesian axis

           atom      1   C  
      Ex  (       -0.89498        0.00000        0.00000 )
      Ey  (        0.00000       -0.89498        0.00000 )
      Ez  (        0.00000        0.00000       -0.89498 )
           atom      2   C  
      Ex  (       -0.89498        0.00000        0.00000 )
      Ey  (        0.00000       -0.89498       -0.00000 )
      Ez  (        0.00000        0.00000       -0.89498 )

          Effective charges (d P / du) in cartesian axis 

           atom      1   C  
      Px  (       -0.89498        0.00000        0.00000 )
      Py  (        0.00000       -0.89498        0.00000 )
      Pz  (        0.00000        0.00000       -0.89498 )
           atom      2   C  
      Px  (       -0.89498       -0.00000        0.00000 )
      Py  (        0.00000       -0.89498       -0.00000 )
      Pz  (       -0.00000       -0.00000       -0.89498 )

     Diagonalizing the dynamical matrix

     q = (    0.000000000   0.000000000   0.000000000 ) 

 **************************************************************************
     freq (    1) =      -9.356465 [THz] =    -312.098088 [cm-1]
     freq (    2) =      -9.356465 [THz] =    -312.098088 [cm-1]
     freq (    3) =      -9.356465 [THz] =    -312.098088 [cm-1]
     freq (    4) =      40.506868 [THz] =    1351.163667 [cm-1]
     freq (    5) =      40.506868 [THz] =    1351.163667 [cm-1]
     freq (    6) =      40.506868 [THz] =    1351.163667 [cm-1]
 **************************************************************************

     Mode symmetry, O_h (m-3m)  point group:

     freq (  1 -  3) =       -312.1  [cm-1]   --> T_1u G_15  G_4- I  
     freq (  4 -  6) =       1351.2  [cm-1]   --> T_2g G_25' G_5+ R  

     Calculation of q =   -0.3333333   0.3333333  -0.3333333

   Info: using nr1, nr2, nr3 values from input

   Info: using nr1, nr2, nr3 values from input
 
     Parallelization info
     --------------------
     sticks:   dense  smooth     PW     G-vecs:    dense   smooth      PW
     Min          18      18      6                  332      332      59
     Max          19      19      7                  337      337      61
     Sum         745     745    241                13371    13371    2421
 


     bravais-lattice index     =            2
     lattice parameter (alat)  =       6.7034  a.u.
     unit-cell volume          =      75.3061 (a.u.)^3
     number of atoms/cell      =            2
     number of atomic types    =            1
     number of electrons       =         8.00
     number of Kohn-Sham states=            8
     kinetic-energy cutoff     =     120.0000  Ry
     charge density cutoff     =     480.0000  Ry
     Exchange-correlation      = PZ ( 1  1  0  0 0 0)

     celldm(1)=   6.703426  celldm(2)=   0.000000  celldm(3)=   0.000000
     celldm(4)=   0.000000  celldm(5)=   0.000000  celldm(6)=   0.000000

     crystal axes: (cart. coord. in units of alat)
               a(1) = (  -0.500000   0.000000   0.500000 )  
               a(2) = (   0.000000   0.500000   0.500000 )  
               a(3) = (  -0.500000   0.500000   0.000000 )  

     reciprocal axes: (cart. coord. in units 2 pi/alat)
               b(1) = ( -1.000000 -1.000000  1.000000 )  
               b(2) = (  1.000000  1.000000  1.000000 )  
               b(3) = ( -1.000000  1.000000 -1.000000 )  


     PseudoPot. # 1 for  C read from file:
     ../C.pz-mt.fhi.UPF
     MD5 check sum: b7c38bc33a0cf75f44be89b84470f298
     Pseudo is Norm-conserving, Zval =  4.0
     Generated using FHI98PP, converted with fhi2upf.x v.5.0.2
     Using radial grid of  461 points,  2 beta functions with: 
                l(1) =   0
                l(2) =   1

     atomic species   valence    mass     pseudopotential
        C              4.00    12.01100      C( 1.00)

     48 Sym. Ops., with inversion, found



   Cartesian axes

     site n.     atom                  positions (alat units)
         1           C   tau(   1) = (   0.0000000   0.0000000   0.0000000  )
         2           C   tau(   2) = (  -0.2500000   0.2500000   0.2500000  )

     number of k points=    20
                       cart. coord. in units 2pi/alat
        k(    1) = (   0.0000000   0.0000000   0.0000000), wk =   0.0740741
        k(    2) = (  -0.3333333   0.3333333  -0.3333333), wk =   0.0000000
        k(    3) = (  -0.3333333   0.3333333  -0.3333333), wk =   0.0740741
        k(    4) = (  -0.6666667   0.6666667  -0.6666667), wk =   0.0000000
        k(    5) = (   0.0000000   0.6666667   0.0000000), wk =   0.2222222
        k(    6) = (  -0.3333333   1.0000000  -0.3333333), wk =   0.0000000
        k(    7) = (   0.6666667  -0.0000000   0.6666667), wk =   0.2222222
        k(    8) = (   0.3333333   0.3333333   0.3333333), wk =   0.0000000
        k(    9) = (   0.3333333   0.3333333  -0.3333333), wk =   0.2222222
        k(   10) = (   0.0000000   0.6666667  -0.6666667), wk =   0.0000000
        k(   11) = (   0.3333333   0.3333333   0.3333333), wk =   0.2222222
        k(   12) = (   0.0000000   0.6666667   0.0000000), wk =   0.0000000
        k(   13) = (   0.3333333  -0.3333333   0.3333333), wk =   0.0740741
        k(   14) = (   0.0000000   0.0000000   0.0000000), wk =   0.0000000
        k(   15) = (   0.0000000  -0.6666667   0.0000000), wk =   0.2222222
        k(   16) = (  -0.3333333  -0.3333333  -0.3333333), wk =   0.0000000
        k(   17) = (  -0.6666667   0.0000000   0.6666667), wk =   0.4444444
        k(   18) = (  -1.0000000   0.3333333   0.3333333), wk =   0.0000000
        k(   19) = (  -0.6666667   0.0000000  -0.6666667), wk =   0.2222222
        k(   20) = (  -1.0000000   0.3333333  -1.0000000), wk =   0.0000000

     Dense  grid:    13371 G-vectors     FFT dimensions: (  36,  36,  36)

     Estimated max dynamical RAM per process >       0.46MB

     Estimated total allocated dynamical RAM >      18.36MB

     The potential is recalculated from file :
     ./_ph0/c.q_2/c.save/charge-density.dat

     Starting wfc are   18 atomic wfcs

     Band Structure Calculation
     Davidson diagonalization with overlap

     ethr =  1.25E-10,  avg # of iterations =  9.2

     total cpu time spent up to now is        0.2 secs

     End of band structure calculation

          k = 0.0000 0.0000 0.0000 (  1687 PWs)   bands (ev):

    -8.1913  13.2942  13.2942  13.2942  18.8993  18.8993  18.8993  27.0682

          k =-0.3333 0.3333-0.3333 (  1670 PWs)   bands (ev):

    -5.1282   3.9400  10.9586  10.9586  21.5939  21.5939  22.1566  28.5463

          k =-0.3333 0.3333-0.3333 (  1670 PWs)   bands (ev):

    -5.1282   3.9400  10.9586  10.9586  21.5939  21.5939  22.1566  28.5463

          k =-0.6667 0.6667-0.6667 (  1670 PWs)   bands (ev):

    -5.1282   3.9400  10.9586  10.9586  21.5939  21.5939  22.1566  28.5463

          k = 0.0000 0.6667 0.0000 (  1680 PWs)   bands (ev):

    -4.1149   6.2601   7.9329   7.9329  17.5101  21.0736  27.3831  27.3831

          k =-0.3333 1.0000-0.3333 (  1668 PWs)   bands (ev):

    -0.6171   2.4564   3.8023   8.5670  19.6841  26.2612  26.9137  28.4177

          k = 0.6667-0.0000 0.6667 (  1668 PWs)   bands (ev):

    -0.6171   2.4564   3.8023   8.5670  19.6841  26.2612  26.9137  28.4177

          k = 0.3333 0.3333 0.3333 (  1670 PWs)   bands (ev):

    -5.1282   3.9400  10.9586  10.9586  21.5939  21.5939  22.1566  28.5463

          k = 0.3333 0.3333-0.3333 (  1670 PWs)   bands (ev):

    -5.1282   3.9400  10.9586  10.9586  21.5939  21.5939  22.1566  28.5463

          k = 0.0000 0.6667-0.6667 (  1668 PWs)   bands (ev):

    -0.6171   2.4564   3.8023   8.5670  19.6841  26.2612  26.9137  28.4177

          k = 0.3333 0.3333 0.3333 (  1670 PWs)   bands (ev):

    -5.1282   3.9400  10.9586  10.9586  21.5939  21.5939  22.1566  28.5463

          k = 0.0000 0.6667 0.0000 (  1680 PWs)   bands (ev):

    -4.1149   6.2601   7.9329   7.9329  17.5101  21.0736  27.3831  27.3831

          k = 0.3333-0.3333 0.3333 (  1670 PWs)   bands (ev):

    -5.1282   3.9400  10.9586  10.9586  21.5939  21.5939  22.1566  28.5463

          k = 0.0000 0.0000 0.0000 (  1687 PWs)   bands (ev):

    -8.1913  13.2942  13.2942  13.2942  18.8993  18.8993  18.8993  27.0682

          k = 0.0000-0.6667 0.0000 (  1680 PWs)   bands (ev):

    -4.1149   6.2601   7.9329   7.9329  17.5101  21.0736  27.3831  27.3831

          k =-0.3333-0.3333-0.3333 (  1670 PWs)   bands (ev):

    -5.1282   3.9400  10.9586  10.9586  21.5939  21.5939  22.1566  28.5463

          k =-0.6667 0.0000 0.6667 (  1668 PWs)   bands (ev):

    -0.6171   2.4564   3.8023   8.5670  19.6841  26.2612  26.9137  28.4177

          k =-1.0000 0.3333 0.3333 (  1668 PWs)   bands (ev):

    -0.6171   2.4564   3.8023   8.5670  19.6841  26.2612  26.9137  28.4177

          k =-0.6667 0.0000-0.6667 (  1668 PWs)   bands (ev):

    -0.6171   2.4564   3.8023   8.5670  19.6841  26.2612  26.9137  28.4177

          k =-1.0000 0.3333-1.0000 (  1680 PWs)   bands (ev):

    -4.1149   6.2601   7.9329   7.9329  17.5101  21.0736  27.3831  27.3831

     highest occupied, lowest unoccupied level (ev):    13.2942   17.5101

     Writing output data file c.save

                                                                                

     bravais-lattice index     =            2
     lattice parameter (alat)  =       6.7034  a.u.
     unit-cell volume          =      75.3061 (a.u.)^3
     number of atoms/cell      =            2
     number of atomic types    =            1
     kinetic-energy cut-off    =     120.0000  Ry
     charge density cut-off    =     480.0000  Ry
     convergence threshold     =      1.0E-24
     beta                      =       0.7000
     number of iterations used =            4
     Exchange-correlation      = PZ ( 1  1  0  0 0 0)


     celldm(1)=    6.70343  celldm(2)=    0.00000  celldm(3)=    0.00000
     celldm(4)=    0.00000  celldm(5)=    0.00000  celldm(6)=    0.00000

     crystal axes: (cart. coord. in units of alat)
               a(1) = ( -0.5000  0.0000  0.5000 )  
               a(2) = (  0.0000  0.5000  0.5000 )  
               a(3) = ( -0.5000  0.5000  0.0000 )  

     reciprocal axes: (cart. coord. in units 2 pi/alat)
               b(1) = ( -1.0000 -1.0000  1.0000 )  
               b(2) = (  1.0000  1.0000  1.0000 )  
               b(3) = ( -1.0000  1.0000 -1.0000 )  


     Atoms inside the unit cell: 

     Cartesian axes

     site n.  atom      mass           positions (alat units)
        1     C   12.0110   tau(    1) = (    0.00000    0.00000    0.00000  )
        2     C   12.0110   tau(    2) = (   -0.25000    0.25000    0.25000  )

     Computing dynamical matrix for 
                    q = (  -0.3333333   0.3333333  -0.3333333 )
 
      6 Sym.Ops. (no q -> -q+G )


     G cutoff =  546.3552  (    333 G-vectors)     FFT grid: ( 36, 36, 36)
     number of k points=    20

     PseudoPot. # 1 for  C read from file:
     ../C.pz-mt.fhi.UPF
     MD5 check sum: b7c38bc33a0cf75f44be89b84470f298
     Pseudo is Norm-conserving, Zval =  4.0
     Generated using FHI98PP, converted with fhi2upf.x v.5.0.2
     Using radial grid of  461 points,  2 beta functions with: 
                l(1) =   0
                l(2) =   1

     Mode symmetry, C_3v (3m)   point group:


     Atomic displacements:
     There are   4 irreducible representations

     Representation     1      1 modes -A_1  L_1  To be done

     Representation     2      1 modes -A_1  L_1  To be done

     Representation     3      2 modes -E    L_3  To be done

     Representation     4      2 modes -E    L_3  To be done



     Alpha used in Ewald sum =   2.8000
     PHONON       :    16.45s CPU        17.74s WALL



     Representation #  1 mode #   1

     Self-consistent Calculation

      iter #   1 total cpu time :    17.9 secs   av.it.:   6.7
      thresh= 1.000E-02 alpha_mix =  0.700 |ddv_scf|^2 =  2.445E-04

      iter #   2 total cpu time :    19.0 secs   av.it.:   8.6
      thresh= 1.564E-03 alpha_mix =  0.700 |ddv_scf|^2 =  5.488E-04

      iter #   3 total cpu time :    19.2 secs   av.it.:   7.6
      thresh= 2.343E-03 alpha_mix =  0.700 |ddv_scf|^2 =  1.459E-07

      iter #   4 total cpu time :    19.6 secs   av.it.:   9.0
      thresh= 3.820E-05 alpha_mix =  0.700 |ddv_scf|^2 =  1.003E-08

      iter #   5 total cpu time :    20.2 secs   av.it.:   8.6
      thresh= 1.001E-05 alpha_mix =  0.700 |ddv_scf|^2 =  6.743E-11

      iter #   6 total cpu time :    20.6 secs   av.it.:   9.0
      thresh= 8.212E-07 alpha_mix =  0.700 |ddv_scf|^2 =  4.384E-12

      iter #   7 total cpu time :    20.8 secs   av.it.:   8.7
      thresh= 2.094E-07 alpha_mix =  0.700 |ddv_scf|^2 =  2.592E-12

      iter #   8 total cpu time :    21.4 secs   av.it.:   7.9
      thresh= 1.610E-07 alpha_mix =  0.700 |ddv_scf|^2 =  8.382E-14

      iter #   9 total cpu time :    22.5 secs   av.it.:   8.8
      thresh= 2.895E-08 alpha_mix =  0.700 |ddv_scf|^2 =  2.645E-14

      iter #  10 total cpu time :    22.6 secs   av.it.:   8.8
      thresh= 1.626E-08 alpha_mix =  0.700 |ddv_scf|^2 =  1.490E-14

      iter #  11 total cpu time :    22.7 secs   av.it.:   8.4
      thresh= 1.221E-08 alpha_mix =  0.700 |ddv_scf|^2 =  4.137E-17

      iter #  12 total cpu time :    22.8 secs   av.it.:   8.8
      thresh= 6.432E-10 alpha_mix =  0.700 |ddv_scf|^2 =  6.793E-18

      iter #  13 total cpu time :    22.8 secs   av.it.:   8.7
      thresh= 2.606E-10 alpha_mix =  0.700 |ddv_scf|^2 =  5.930E-19

      iter #  14 total cpu time :    22.9 secs   av.it.:   8.8
      thresh= 7.701E-11 alpha_mix =  0.700 |ddv_scf|^2 =  6.519E-20

      iter #  15 total cpu time :    22.9 secs   av.it.:   8.5
      thresh= 2.553E-11 alpha_mix =  0.700 |ddv_scf|^2 =  1.019E-21

      iter #  16 total cpu time :    23.0 secs   av.it.:   8.4
      thresh= 3.193E-12 alpha_mix =  0.700 |ddv_scf|^2 =  9.758E-24

      iter #  17 total cpu time :    23.2 secs   av.it.:   9.0
      thresh= 3.124E-13 alpha_mix =  0.700 |ddv_scf|^2 =  6.895E-25

     End of self-consistent calculation

     Convergence has been achieved 


     Representation #  2 mode #   2

     Self-consistent Calculation

      iter #   1 total cpu time :    23.3 secs   av.it.:   6.7
      thresh= 1.000E-02 alpha_mix =  0.700 |ddv_scf|^2 =  2.445E-04

      iter #   2 total cpu time :    23.5 secs   av.it.:   8.6
      thresh= 1.564E-03 alpha_mix =  0.700 |ddv_scf|^2 =  5.488E-04

      iter #   3 total cpu time :    23.6 secs   av.it.:   7.6
      thresh= 2.343E-03 alpha_mix =  0.700 |ddv_scf|^2 =  1.459E-07

      iter #   4 total cpu time :    23.7 secs   av.it.:   9.0
      thresh= 3.820E-05 alpha_mix =  0.700 |ddv_scf|^2 =  1.003E-08

      iter #   5 total cpu time :    23.8 secs   av.it.:   8.6
      thresh= 1.001E-05 alpha_mix =  0.700 |ddv_scf|^2 =  6.743E-11

      iter #   6 total cpu time :    23.8 secs   av.it.:   9.0
      thresh= 8.212E-07 alpha_mix =  0.700 |ddv_scf|^2 =  4.384E-12

      iter #   7 total cpu time :    23.9 secs   av.it.:   8.7
      thresh= 2.094E-07 alpha_mix =  0.700 |ddv_scf|^2 =  2.592E-12

      iter #   8 total cpu time :    24.0 secs   av.it.:   7.9
      thresh= 1.610E-07 alpha_mix =  0.700 |ddv_scf|^2 =  8.382E-14

      iter #   9 total cpu time :    24.0 secs   av.it.:   8.8
      thresh= 2.895E-08 alpha_mix =  0.700 |ddv_scf|^2 =  2.645E-14

      iter #  10 total cpu time :    24.1 secs   av.it.:   8.8
      thresh= 1.626E-08 alpha_mix =  0.700 |ddv_scf|^2 =  1.490E-14

      iter #  11 total cpu time :    24.1 secs   av.it.:   8.4
      thresh= 1.221E-08 alpha_mix =  0.700 |ddv_scf|^2 =  4.137E-17

      iter #  12 total cpu time :    24.2 secs   av.it.:   8.8
      thresh= 6.432E-10 alpha_mix =  0.700 |ddv_scf|^2 =  6.793E-18

      iter #  13 total cpu time :    24.2 secs   av.it.:   8.7
      thresh= 2.606E-10 alpha_mix =  0.700 |ddv_scf|^2 =  5.930E-19

      iter #  14 total cpu time :    24.3 secs   av.it.:   8.8
      thresh= 7.701E-11 alpha_mix =  0.700 |ddv_scf|^2 =  6.519E-20

      iter #  15 total cpu time :    24.4 secs   av.it.:   8.5
      thresh= 2.553E-11 alpha_mix =  0.700 |ddv_scf|^2 =  1.019E-21

      iter #  16 total cpu time :    24.4 secs   av.it.:   8.4
      thresh= 3.193E-12 alpha_mix =  0.700 |ddv_scf|^2 =  9.758E-24

      iter #  17 total cpu time :    24.5 secs   av.it.:   9.0
      thresh= 3.124E-13 alpha_mix =  0.700 |ddv_scf|^2 =  6.895E-25

     End of self-consistent calculation

     Convergence has been achieved 


     Representation #  3 modes #   3  4

     Self-consistent Calculation

      iter #   1 total cpu time :    24.6 secs   av.it.:   6.3
      thresh= 1.000E-02 alpha_mix =  0.700 |ddv_scf|^2 =  3.643E-07

      iter #   2 total cpu time :    25.0 secs   av.it.:   9.9
      thresh= 6.036E-05 alpha_mix =  0.700 |ddv_scf|^2 =  6.860E-10

      iter #   3 total cpu time :    25.3 secs   av.it.:   9.9
      thresh= 2.619E-06 alpha_mix =  0.700 |ddv_scf|^2 =  2.271E-11

      iter #   4 total cpu time :    25.5 secs   av.it.:   9.7
      thresh= 4.766E-07 alpha_mix =  0.700 |ddv_scf|^2 =  7.222E-13

      iter #   5 total cpu time :    25.7 secs   av.it.:   9.4
      thresh= 8.498E-08 alpha_mix =  0.700 |ddv_scf|^2 =  3.142E-15

      iter #   6 total cpu time :    25.8 secs   av.it.:  10.2
      thresh= 5.605E-09 alpha_mix =  0.700 |ddv_scf|^2 =  6.356E-18

      iter #   7 total cpu time :    25.9 secs   av.it.:  10.2
      thresh= 2.521E-10 alpha_mix =  0.700 |ddv_scf|^2 =  2.880E-19

      iter #   8 total cpu time :    26.0 secs   av.it.:  10.4
      thresh= 5.367E-11 alpha_mix =  0.700 |ddv_scf|^2 =  7.434E-22

      iter #   9 total cpu time :    26.1 secs   av.it.:  10.3
      thresh= 2.726E-12 alpha_mix =  0.700 |ddv_scf|^2 =  2.574E-24

      iter #  10 total cpu time :    26.2 secs   av.it.:   9.7
      thresh= 1.604E-13 alpha_mix =  0.700 |ddv_scf|^2 =  1.336E-25

     End of self-consistent calculation

     Convergence has been achieved 


     Representation #  4 modes #   5  6

     Self-consistent Calculation

      iter #   1 total cpu time :    26.4 secs   av.it.:   6.4
      thresh= 1.000E-02 alpha_mix =  0.700 |ddv_scf|^2 =  3.643E-07

      iter #   2 total cpu time :    26.9 secs   av.it.:   9.9
      thresh= 6.036E-05 alpha_mix =  0.700 |ddv_scf|^2 =  6.860E-10

      iter #   3 total cpu time :    27.1 secs   av.it.:   9.9
      thresh= 2.619E-06 alpha_mix =  0.700 |ddv_scf|^2 =  2.271E-11

      iter #   4 total cpu time :    27.3 secs   av.it.:   9.7
      thresh= 4.766E-07 alpha_mix =  0.700 |ddv_scf|^2 =  7.220E-13

      iter #   5 total cpu time :    27.4 secs   av.it.:   9.4
      thresh= 8.497E-08 alpha_mix =  0.700 |ddv_scf|^2 =  3.142E-15

      iter #   6 total cpu time :    27.5 secs   av.it.:  10.2
      thresh= 5.605E-09 alpha_mix =  0.700 |ddv_scf|^2 =  6.350E-18

      iter #   7 total cpu time :    27.6 secs   av.it.:  10.2
      thresh= 2.520E-10 alpha_mix =  0.700 |ddv_scf|^2 =  2.879E-19

      iter #   8 total cpu time :    27.8 secs   av.it.:  10.4
      thresh= 5.366E-11 alpha_mix =  0.700 |ddv_scf|^2 =  7.433E-22

      iter #   9 total cpu time :    27.9 secs   av.it.:  10.2
      thresh= 2.726E-12 alpha_mix =  0.700 |ddv_scf|^2 =  2.592E-24

      iter #  10 total cpu time :    28.0 secs   av.it.:   9.8
      thresh= 1.610E-13 alpha_mix =  0.700 |ddv_scf|^2 =  1.339E-25

     End of self-consistent calculation

     Convergence has been achieved 
 
     Number of q in the star =    8
     List of q in the star:
          1  -0.333333333   0.333333333  -0.333333333
          2   0.333333333   0.333333333  -0.333333333
          3   0.333333333   0.333333333   0.333333333
          4  -0.333333333   0.333333333   0.333333333
          5   0.333333333  -0.333333333   0.333333333
          6  -0.333333333  -0.333333333  -0.333333333
          7   0.333333333  -0.333333333  -0.333333333
          8  -0.333333333  -0.333333333   0.333333333

     Diagonalizing the dynamical matrix

     q = (   -0.333333333   0.333333333  -0.333333333 ) 

 **************************************************************************
     freq (    1) =      10.898651 [THz] =     363.539876 [cm-1]
     freq (    2) =      10.898651 [THz] =     363.539876 [cm-1]
     freq (    3) =      23.441607 [THz] =     781.927859 [cm-1]
     freq (    4) =      37.008528 [THz] =    1234.471626 [cm-1]
     freq (    5) =      37.008528 [THz] =    1234.471626 [cm-1]
     freq (    6) =      38.651621 [THz] =    1289.279298 [cm-1]
 **************************************************************************

     Mode symmetry, C_3v (3m)   point group:

     freq (  1 -  2) =        363.5  [cm-1]   --> E    L_3           
     freq (  3 -  3) =        781.9  [cm-1]   --> A_1  L_1           
     freq (  4 -  5) =       1234.5  [cm-1]   --> E    L_3           
     freq (  6 -  6) =       1289.3  [cm-1]   --> A_1  L_1           

     Calculation of q =    0.0000000   0.6666667   0.0000000

   Info: using nr1, nr2, nr3 values from input

   Info: using nr1, nr2, nr3 values from input
 
     Parallelization info
     --------------------
     sticks:   dense  smooth     PW     G-vecs:    dense   smooth      PW
     Min          18      18      6                  332      332      59
     Max          19      19      7                  337      337      61
     Sum         745     745    241                13371    13371    2421
 


     bravais-lattice index     =            2
     lattice parameter (alat)  =       6.7034  a.u.
     unit-cell volume          =      75.3061 (a.u.)^3
     number of atoms/cell      =            2
     number of atomic types    =            1
     number of electrons       =         8.00
     number of Kohn-Sham states=            8
     kinetic-energy cutoff     =     120.0000  Ry
     charge density cutoff     =     480.0000  Ry
     Exchange-correlation      = PZ ( 1  1  0  0 0 0)

     celldm(1)=   6.703426  celldm(2)=   0.000000  celldm(3)=   0.000000
     celldm(4)=   0.000000  celldm(5)=   0.000000  celldm(6)=   0.000000

     crystal axes: (cart. coord. in units of alat)
               a(1) = (  -0.500000   0.000000   0.500000 )  
               a(2) = (   0.000000   0.500000   0.500000 )  
               a(3) = (  -0.500000   0.500000   0.000000 )  

     reciprocal axes: (cart. coord. in units 2 pi/alat)
               b(1) = ( -1.000000 -1.000000  1.000000 )  
               b(2) = (  1.000000  1.000000  1.000000 )  
               b(3) = ( -1.000000  1.000000 -1.000000 )  


     PseudoPot. # 1 for  C read from file:
     ../C.pz-mt.fhi.UPF
     MD5 check sum: b7c38bc33a0cf75f44be89b84470f298
     Pseudo is Norm-conserving, Zval =  4.0
     Generated using FHI98PP, converted with fhi2upf.x v.5.0.2
     Using radial grid of  461 points,  2 beta functions with: 
                l(1) =   0
                l(2) =   1

     atomic species   valence    mass     pseudopotential
        C              4.00    12.01100      C( 1.00)

     48 Sym. Ops., with inversion, found



   Cartesian axes

     site n.     atom                  positions (alat units)
         1           C   tau(   1) = (   0.0000000   0.0000000   0.0000000  )
         2           C   tau(   2) = (  -0.2500000   0.2500000   0.2500000  )

     number of k points=    18
                       cart. coord. in units 2pi/alat
        k(    1) = (   0.0000000   0.0000000   0.0000000), wk =   0.0740741
        k(    2) = (   0.0000000   0.6666667   0.0000000), wk =   0.0000000
        k(    3) = (  -0.3333333   0.3333333  -0.3333333), wk =   0.2962963
        k(    4) = (  -0.3333333   1.0000000  -0.3333333), wk =   0.0000000
        k(    5) = (   0.0000000   0.6666667   0.0000000), wk =   0.0740741
        k(    6) = (   0.0000000   1.3333333   0.0000000), wk =   0.0000000
        k(    7) = (   0.6666667  -0.0000000   0.6666667), wk =   0.2962963
        k(    8) = (   0.6666667   0.6666667   0.6666667), wk =   0.0000000
        k(    9) = (   0.3333333  -0.3333333   0.3333333), wk =   0.2962963
        k(   10) = (   0.3333333   0.3333333   0.3333333), wk =   0.0000000
        k(   11) = (  -0.6666667   0.0000000   0.0000000), wk =   0.2962963
        k(   12) = (  -0.6666667   0.6666667   0.0000000), wk =   0.0000000
        k(   13) = (   0.0000000  -0.6666667   0.0000000), wk =   0.0740741
        k(   14) = (   0.0000000   0.0000000   0.0000000), wk =   0.0000000
        k(   15) = (   0.0000000  -0.6666667   0.6666667), wk =   0.2962963
        k(   16) = (   0.0000000  -0.0000000   0.6666667), wk =   0.0000000
        k(   17) = (  -0.6666667   0.6666667   0.0000000), wk =   0.2962963
        k(   18) = (  -0.6666667   1.3333333   0.0000000), wk =   0.0000000

     Dense  grid:    13371 G-vectors     FFT dimensions: (  36,  36,  36)

     Estimated max dynamical RAM per process >       0.46MB

     Estimated total allocated dynamical RAM >      18.36MB

     The potential is recalculated from file :
     ./_ph0/c.q_3/c.save/charge-density.dat

     Starting wfc are   18 atomic wfcs

     Band Structure Calculation
     Davidson diagonalization with overlap

     ethr =  1.25E-10,  avg # of iterations =  9.4

     total cpu time spent up to now is        0.6 secs

     End of band structure calculation

          k = 0.0000 0.0000 0.0000 (  1687 PWs)   bands (ev):

    -8.1913  13.2942  13.2942  13.2942  18.8993  18.8993  18.8993  27.0682

          k = 0.0000 0.6667 0.0000 (  1680 PWs)   bands (ev):

    -4.1149   6.2601   7.9329   7.9329  17.5101  21.0736  27.3831  27.3831

          k =-0.3333 0.3333-0.3333 (  1670 PWs)   bands (ev):

    -5.1282   3.9400  10.9586  10.9586  21.5939  21.5939  22.1566  28.5463

          k =-0.3333 1.0000-0.3333 (  1668 PWs)   bands (ev):

    -0.6171   2.4564   3.8023   8.5670  19.6841  26.2612  26.9137  28.4177

          k = 0.0000 0.6667 0.0000 (  1680 PWs)   bands (ev):

    -4.1149   6.2601   7.9329   7.9329  17.5101  21.0736  27.3831  27.3831

          k = 0.0000 1.3333 0.0000 (  1680 PWs)   bands (ev):

    -4.1149   6.2601   7.9329   7.9329  17.5101  21.0736  27.3831  27.3831

          k = 0.6667-0.0000 0.6667 (  1668 PWs)   bands (ev):

    -0.6171   2.4564   3.8023   8.5670  19.6841  26.2612  26.9137  28.4177

          k = 0.6667 0.6667 0.6667 (  1670 PWs)   bands (ev):

    -5.1282   3.9400  10.9586  10.9586  21.5939  21.5939  22.1566  28.5463

          k = 0.3333-0.3333 0.3333 (  1670 PWs)   bands (ev):

    -5.1282   3.9400  10.9586  10.9586  21.5939  21.5939  22.1566  28.5463

          k = 0.3333 0.3333 0.3333 (  1670 PWs)   bands (ev):

    -5.1282   3.9400  10.9586  10.9586  21.5939  21.5939  22.1566  28.5463

          k =-0.6667 0.0000 0.0000 (  1680 PWs)   bands (ev):

    -4.1149   6.2601   7.9329   7.9329  17.5101  21.0736  27.3831  27.3831

          k =-0.6667 0.6667 0.0000 (  1668 PWs)   bands (ev):

    -0.6171   2.4564   3.8023   8.5670  19.6841  26.2612  26.9137  28.4177

          k = 0.0000-0.6667 0.0000 (  1680 PWs)   bands (ev):

    -4.1149   6.2601   7.9329   7.9329  17.5101  21.0736  27.3831  27.3831

          k = 0.0000 0.0000 0.0000 (  1687 PWs)   bands (ev):

    -8.1913  13.2942  13.2942  13.2942  18.8993  18.8993  18.8993  27.0682

          k = 0.0000-0.6667 0.6667 (  1668 PWs)   bands (ev):

    -0.6171   2.4564   3.8023   8.5670  19.6841  26.2612  26.9137  28.4177

          k = 0.0000-0.0000 0.6667 (  1680 PWs)   bands (ev):

    -4.1149   6.2601   7.9329   7.9329  17.5101  21.0736  27.3831  27.3831

          k =-0.6667 0.6667 0.0000 (  1668 PWs)   bands (ev):

    -0.6171   2.4564   3.8023   8.5670  19.6841  26.2612  26.9137  28.4177

          k =-0.6667 1.3333 0.0000 (  1668 PWs)   bands (ev):

    -0.6171   2.4564   3.8023   8.5670  19.6841  26.2612  26.9137  28.4177

     highest occupied, lowest unoccupied level (ev):    13.2942   17.5101

     Writing output data file c.save

                                                                                

     bravais-lattice index     =            2
     lattice parameter (alat)  =       6.7034  a.u.
     unit-cell volume          =      75.3061 (a.u.)^3
     number of atoms/cell      =            2
     number of atomic types    =            1
     kinetic-energy cut-off    =     120.0000  Ry
     charge density cut-off    =     480.0000  Ry
     convergence threshold     =      1.0E-24
     beta                      =       0.7000
     number of iterations used =            4
     Exchange-correlation      = PZ ( 1  1  0  0 0 0)


     celldm(1)=    6.70343  celldm(2)=    0.00000  celldm(3)=    0.00000
     celldm(4)=    0.00000  celldm(5)=    0.00000  celldm(6)=    0.00000

     crystal axes: (cart. coord. in units of alat)
               a(1) = ( -0.5000  0.0000  0.5000 )  
               a(2) = (  0.0000  0.5000  0.5000 )  
               a(3) = ( -0.5000  0.5000  0.0000 )  

     reciprocal axes: (cart. coord. in units 2 pi/alat)
               b(1) = ( -1.0000 -1.0000  1.0000 )  
               b(2) = (  1.0000  1.0000  1.0000 )  
               b(3) = ( -1.0000  1.0000 -1.0000 )  


     Atoms inside the unit cell: 

     Cartesian axes

     site n.  atom      mass           positions (alat units)
        1     C   12.0110   tau(    1) = (    0.00000    0.00000    0.00000  )
        2     C   12.0110   tau(    2) = (   -0.25000    0.25000    0.25000  )

     Computing dynamical matrix for 
                    q = (   0.0000000   0.6666667   0.0000000 )
 
      8 Sym.Ops. (no q -> -q+G )


     G cutoff =  546.3552  (    333 G-vectors)     FFT grid: ( 36, 36, 36)
     number of k points=    18

     PseudoPot. # 1 for  C read from file:
     ../C.pz-mt.fhi.UPF
     MD5 check sum: b7c38bc33a0cf75f44be89b84470f298
     Pseudo is Norm-conserving, Zval =  4.0
     Generated using FHI98PP, converted with fhi2upf.x v.5.0.2
     Using radial grid of  461 points,  2 beta functions with: 
                l(1) =   0
                l(2) =   1

     Mode symmetry, C_4v (4mm)  point group:


     Atomic displacements:
     There are   4 irreducible representations

     Representation     1      1 modes -A_1  G_1 D_1  To be done

     Representation     2      1 modes -B_2  G_4 D_2'  To be done

     Representation     3      2 modes -E    G_5 D_5  To be done

     Representation     4      2 modes -E    G_5 D_5  To be done



     Alpha used in Ewald sum =   2.8000
     PHONON       :    25.48s CPU        28.61s WALL



     Representation #  1 mode #   1

     Self-consistent Calculation

      iter #   1 total cpu time :    28.8 secs   av.it.:   6.6
      thresh= 1.000E-02 alpha_mix =  0.700 |ddv_scf|^2 =  2.639E-04

      iter #   2 total cpu time :    29.2 secs   av.it.:   8.2
      thresh= 1.625E-03 alpha_mix =  0.700 |ddv_scf|^2 =  4.836E-04

      iter #   3 total cpu time :    29.3 secs   av.it.:   7.3
      thresh= 2.199E-03 alpha_mix =  0.700 |ddv_scf|^2 =  1.335E-07

      iter #   4 total cpu time :    29.4 secs   av.it.:   7.9
      thresh= 3.654E-05 alpha_mix =  0.700 |ddv_scf|^2 =  8.735E-11

      iter #   5 total cpu time :    29.5 secs   av.it.:   7.9
      thresh= 9.346E-07 alpha_mix =  0.700 |ddv_scf|^2 =  1.379E-11

      iter #   6 total cpu time :    29.6 secs   av.it.:   8.1
      thresh= 3.714E-07 alpha_mix =  0.700 |ddv_scf|^2 =  6.038E-14

      iter #   7 total cpu time :    29.6 secs   av.it.:   8.1
      thresh= 2.457E-08 alpha_mix =  0.700 |ddv_scf|^2 =  4.018E-16

      iter #   8 total cpu time :    29.7 secs   av.it.:   7.7
      thresh= 2.005E-09 alpha_mix =  0.700 |ddv_scf|^2 =  5.537E-18

      iter #   9 total cpu time :    29.7 secs   av.it.:   7.9
      thresh= 2.353E-10 alpha_mix =  0.700 |ddv_scf|^2 =  7.824E-21

      iter #  10 total cpu time :    29.8 secs   av.it.:   7.9
      thresh= 8.845E-12 alpha_mix =  0.700 |ddv_scf|^2 =  2.041E-22

      iter #  11 total cpu time :    29.8 secs   av.it.:   8.1
      thresh= 1.429E-12 alpha_mix =  0.700 |ddv_scf|^2 =  3.761E-24

      iter #  12 total cpu time :    29.9 secs   av.it.:   7.7
      thresh= 1.939E-13 alpha_mix =  0.700 |ddv_scf|^2 =  4.943E-26

     End of self-consistent calculation

     Convergence has been achieved 


     Representation #  2 mode #   2

     Self-consistent Calculation

      iter #   1 total cpu time :    30.0 secs   av.it.:   6.1
      thresh= 1.000E-02 alpha_mix =  0.700 |ddv_scf|^2 =  7.272E-06

      iter #   2 total cpu time :    30.7 secs   av.it.:   8.4
      thresh= 2.697E-04 alpha_mix =  0.700 |ddv_scf|^2 =  1.984E-06

      iter #   3 total cpu time :    31.0 secs   av.it.:   8.6
      thresh= 1.409E-04 alpha_mix =  0.700 |ddv_scf|^2 =  5.207E-08

      iter #   4 total cpu time :    31.3 secs   av.it.:   8.4
      thresh= 2.282E-05 alpha_mix =  0.700 |ddv_scf|^2 =  1.524E-10

      iter #   5 total cpu time :    31.7 secs   av.it.:   8.6
      thresh= 1.234E-06 alpha_mix =  0.700 |ddv_scf|^2 =  1.023E-12

      iter #   6 total cpu time :    32.0 secs   av.it.:   8.0
      thresh= 1.011E-07 alpha_mix =  0.700 |ddv_scf|^2 =  1.231E-15

      iter #   7 total cpu time :    32.1 secs   av.it.:   8.4
      thresh= 3.508E-09 alpha_mix =  0.700 |ddv_scf|^2 =  1.284E-17

      iter #   8 total cpu time :    32.3 secs   av.it.:   9.0
      thresh= 3.584E-10 alpha_mix =  0.700 |ddv_scf|^2 =  1.337E-20

      iter #   9 total cpu time :    32.3 secs   av.it.:   8.2
      thresh= 1.156E-11 alpha_mix =  0.700 |ddv_scf|^2 =  1.028E-21

      iter #  10 total cpu time :    32.4 secs   av.it.:   8.7
      thresh= 3.207E-12 alpha_mix =  0.700 |ddv_scf|^2 =  1.405E-23

      iter #  11 total cpu time :    32.4 secs   av.it.:   8.4
      thresh= 3.749E-13 alpha_mix =  0.700 |ddv_scf|^2 =  1.927E-25

     End of self-consistent calculation

     Convergence has been achieved 


     Representation #  3 modes #   3  4

     Self-consistent Calculation

      iter #   1 total cpu time :    32.6 secs   av.it.:   6.4
      thresh= 1.000E-02 alpha_mix =  0.700 |ddv_scf|^2 =  6.562E-07

      iter #   2 total cpu time :    33.1 secs   av.it.:   9.7
      thresh= 8.101E-05 alpha_mix =  0.700 |ddv_scf|^2 =  1.233E-08

      iter #   3 total cpu time :    34.2 secs   av.it.:   9.6
      thresh= 1.110E-05 alpha_mix =  0.700 |ddv_scf|^2 =  4.644E-11

      iter #   4 total cpu time :    35.2 secs   av.it.:   9.8
      thresh= 6.815E-07 alpha_mix =  0.700 |ddv_scf|^2 =  1.140E-12

      iter #   5 total cpu time :    35.7 secs   av.it.:   9.1
      thresh= 1.068E-07 alpha_mix =  0.700 |ddv_scf|^2 =  1.012E-15

      iter #   6 total cpu time :    36.3 secs   av.it.:  10.2
      thresh= 3.181E-09 alpha_mix =  0.700 |ddv_scf|^2 =  8.276E-18

      iter #   7 total cpu time :    37.5 secs   av.it.:  10.2
      thresh= 2.877E-10 alpha_mix =  0.700 |ddv_scf|^2 =  7.289E-20

      iter #   8 total cpu time :    38.9 secs   av.it.:   9.8
      thresh= 2.700E-11 alpha_mix =  0.700 |ddv_scf|^2 =  3.097E-21

      iter #   9 total cpu time :    39.1 secs   av.it.:   9.9
      thresh= 5.565E-12 alpha_mix =  0.700 |ddv_scf|^2 =  5.397E-24

      iter #  10 total cpu time :    39.9 secs   av.it.:  10.0
      thresh= 2.323E-13 alpha_mix =  0.700 |ddv_scf|^2 =  2.038E-25

     End of self-consistent calculation

     Convergence has been achieved 


     Representation #  4 modes #   5  6

     Self-consistent Calculation

      iter #   1 total cpu time :    41.9 secs   av.it.:   6.3
      thresh= 1.000E-02 alpha_mix =  0.700 |ddv_scf|^2 =  8.316E-07

      iter #   2 total cpu time :    42.0 secs   av.it.:   9.7
      thresh= 9.119E-05 alpha_mix =  0.700 |ddv_scf|^2 =  1.576E-08

      iter #   3 total cpu time :    42.2 secs   av.it.:   9.6
      thresh= 1.255E-05 alpha_mix =  0.700 |ddv_scf|^2 =  3.342E-11

      iter #   4 total cpu time :    42.3 secs   av.it.:   9.8
      thresh= 5.781E-07 alpha_mix =  0.700 |ddv_scf|^2 =  6.543E-13

      iter #   5 total cpu time :    42.5 secs   av.it.:   9.4
      thresh= 8.089E-08 alpha_mix =  0.700 |ddv_scf|^2 =  8.668E-16

      iter #   6 total cpu time :    42.6 secs   av.it.:  10.0
      thresh= 2.944E-09 alpha_mix =  0.700 |ddv_scf|^2 =  1.175E-17

      iter #   7 total cpu time :    42.7 secs   av.it.:  10.2
      thresh= 3.428E-10 alpha_mix =  0.700 |ddv_scf|^2 =  4.638E-20

      iter #   8 total cpu time :    42.8 secs   av.it.:  10.0
      thresh= 2.154E-11 alpha_mix =  0.700 |ddv_scf|^2 =  2.453E-21

      iter #   9 total cpu time :    42.9 secs   av.it.:  10.1
      thresh= 4.953E-12 alpha_mix =  0.700 |ddv_scf|^2 =  6.416E-24

      iter #  10 total cpu time :    43.0 secs   av.it.:  10.1
      thresh= 2.533E-13 alpha_mix =  0.700 |ddv_scf|^2 =  1.031E-25

     End of self-consistent calculation

     Convergence has been achieved 
 
     Number of q in the star =    6
     List of q in the star:
          1   0.000000000   0.666666667   0.000000000
          2  -0.666666667   0.000000000   0.000000000
          3   0.000000000  -0.666666667   0.000000000
          4   0.000000000   0.000000000   0.666666667
          5   0.000000000   0.000000000  -0.666666667
          6   0.666666667   0.000000000   0.000000000

     Diagonalizing the dynamical matrix

     q = (    0.000000000   0.666666667   0.000000000 ) 

 **************************************************************************
     freq (    1) =      16.885861 [THz] =     563.251693 [cm-1]
     freq (    2) =      16.885861 [THz] =     563.251693 [cm-1]
     freq (    3) =      26.521096 [THz] =     884.648541 [cm-1]
     freq (    4) =      33.867425 [THz] =    1129.695681 [cm-1]
     freq (    5) =      33.867425 [THz] =    1129.695681 [cm-1]
     freq (    6) =      38.844909 [THz] =    1295.726682 [cm-1]
 **************************************************************************

     Mode symmetry, C_4v (4mm)  point group:

     freq (  1 -  2) =        563.3  [cm-1]   --> E    G_5 D_5       
     freq (  3 -  3) =        884.6  [cm-1]   --> A_1  G_1 D_1       
     freq (  4 -  5) =       1129.7  [cm-1]   --> E    G_5 D_5       
     freq (  6 -  6) =       1295.7  [cm-1]   --> B_2  G_4 D_2'      

     Calculation of q =    0.6666667  -0.0000000   0.6666667

   Info: using nr1, nr2, nr3 values from input

   Info: using nr1, nr2, nr3 values from input
 
     Parallelization info
     --------------------
     sticks:   dense  smooth     PW     G-vecs:    dense   smooth      PW
     Min          18      18      6                  332      332      66
     Max          19      19      7                  337      337      69
     Sum         745     745    253                13371    13371    2685
 


     bravais-lattice index     =            2
     lattice parameter (alat)  =       6.7034  a.u.
     unit-cell volume          =      75.3061 (a.u.)^3
     number of atoms/cell      =            2
     number of atomic types    =            1
     number of electrons       =         8.00
     number of Kohn-Sham states=            8
     kinetic-energy cutoff     =     120.0000  Ry
     charge density cutoff     =     480.0000  Ry
     Exchange-correlation      = PZ ( 1  1  0  0 0 0)

     celldm(1)=   6.703426  celldm(2)=   0.000000  celldm(3)=   0.000000
     celldm(4)=   0.000000  celldm(5)=   0.000000  celldm(6)=   0.000000

     crystal axes: (cart. coord. in units of alat)
               a(1) = (  -0.500000   0.000000   0.500000 )  
               a(2) = (   0.000000   0.500000   0.500000 )  
               a(3) = (  -0.500000   0.500000   0.000000 )  

     reciprocal axes: (cart. coord. in units 2 pi/alat)
               b(1) = ( -1.000000 -1.000000  1.000000 )  
               b(2) = (  1.000000  1.000000  1.000000 )  
               b(3) = ( -1.000000  1.000000 -1.000000 )  


     PseudoPot. # 1 for  C read from file:
     ../C.pz-mt.fhi.UPF
     MD5 check sum: b7c38bc33a0cf75f44be89b84470f298
     Pseudo is Norm-conserving, Zval =  4.0
     Generated using FHI98PP, converted with fhi2upf.x v.5.0.2
     Using radial grid of  461 points,  2 beta functions with: 
                l(1) =   0
                l(2) =   1

     atomic species   valence    mass     pseudopotential
        C              4.00    12.01100      C( 1.00)

     48 Sym. Ops., with inversion, found



   Cartesian axes

     site n.     atom                  positions (alat units)
         1           C   tau(   1) = (   0.0000000   0.0000000   0.0000000  )
         2           C   tau(   2) = (  -0.2500000   0.2500000   0.2500000  )

     number of k points=    24
                       cart. coord. in units 2pi/alat
        k(    1) = (   0.0000000   0.0000000   0.0000000), wk =   0.0740741
        k(    2) = (   0.6666667  -0.0000000   0.6666667), wk =   0.0000000
        k(    3) = (  -0.3333333   0.3333333  -0.3333333), wk =   0.1481481
        k(    4) = (   0.3333333   0.3333333   0.3333333), wk =   0.0000000
        k(    5) = (   0.0000000   0.6666667   0.0000000), wk =   0.1481481
        k(    6) = (   0.6666667   0.6666667   0.6666667), wk =   0.0000000
        k(    7) = (   0.6666667  -0.0000000   0.6666667), wk =   0.0740741
        k(    8) = (   1.3333333  -0.0000000   1.3333333), wk =   0.0000000
        k(    9) = (  -0.3333333   0.3333333   0.3333333), wk =   0.2962963
        k(   10) = (   0.3333333   0.3333333   1.0000000), wk =   0.0000000
        k(   11) = (   0.3333333   0.3333333   0.3333333), wk =   0.1481481
        k(   12) = (   1.0000000   0.3333333   1.0000000), wk =   0.0000000
        k(   13) = (  -0.6666667   0.0000000   0.0000000), wk =   0.1481481
        k(   14) = (   0.0000000  -0.0000000   0.6666667), wk =   0.0000000
        k(   15) = (   0.0000000   0.0000000   0.6666667), wk =   0.1481481
        k(   16) = (   0.6666667  -0.0000000   1.3333333), wk =   0.0000000
        k(   17) = (   0.6666667   0.0000000  -0.6666667), wk =   0.1481481
        k(   18) = (   1.3333333  -0.0000000   0.0000000), wk =   0.0000000
        k(   19) = (  -0.6666667   0.0000000  -0.6666667), wk =   0.0740741
        k(   20) = (   0.0000000  -0.0000000   0.0000000), wk =   0.0000000
        k(   21) = (   0.0000000  -0.6666667   0.6666667), wk =   0.2962963
        k(   22) = (   0.6666667  -0.6666667   1.3333333), wk =   0.0000000
        k(   23) = (  -0.6666667   0.6666667   0.0000000), wk =   0.2962963
        k(   24) = (   0.0000000   0.6666667   0.6666667), wk =   0.0000000

     Dense  grid:    13371 G-vectors     FFT dimensions: (  36,  36,  36)

     Estimated max dynamical RAM per process >       0.46MB

     Estimated total allocated dynamical RAM >      18.36MB

     The potential is recalculated from file :
     ./_ph0/c.q_4/c.save/charge-density.dat

     Starting wfc are   18 atomic wfcs

     Band Structure Calculation
     Davidson diagonalization with overlap

     ethr =  1.25E-10,  avg # of iterations =  9.8

     total cpu time spent up to now is        0.9 secs

     End of band structure calculation

          k = 0.0000 0.0000 0.0000 (  1687 PWs)   bands (ev):

    -8.1913  13.2942  13.2942  13.2942  18.8993  18.8993  18.8993  27.0682

          k = 0.6667-0.0000 0.6667 (  1668 PWs)   bands (ev):

    -0.6171   2.4564   3.8023   8.5670  19.6841  26.2612  26.9137  28.4177

          k =-0.3333 0.3333-0.3333 (  1670 PWs)   bands (ev):

    -5.1282   3.9400  10.9586  10.9586  21.5939  21.5939  22.1566  28.5463

          k = 0.3333 0.3333 0.3333 (  1670 PWs)   bands (ev):

    -5.1282   3.9400  10.9586  10.9586  21.5939  21.5939  22.1566  28.5463

          k = 0.0000 0.6667 0.0000 (  1680 PWs)   bands (ev):

    -4.1149   6.2601   7.9329   7.9329  17.5101  21.0736  27.3831  27.3831

          k = 0.6667 0.6667 0.6667 (  1670 PWs)   bands (ev):

    -5.1282   3.9400  10.9586  10.9586  21.5939  21.5939  22.1566  28.5463

          k = 0.6667-0.0000 0.6667 (  1668 PWs)   bands (ev):

    -0.6171   2.4564   3.8023   8.5670  19.6841  26.2612  26.9137  28.4177

          k = 1.3333-0.0000 1.3333 (  1668 PWs)   bands (ev):

    -0.6171   2.4564   3.8023   8.5670  19.6841  26.2612  26.9137  28.4177

          k =-0.3333 0.3333 0.3333 (  1670 PWs)   bands (ev):

    -5.1282   3.9400  10.9586  10.9586  21.5939  21.5939  22.1566  28.5463

          k = 0.3333 0.3333 1.0000 (  1668 PWs)   bands (ev):

    -0.6171   2.4564   3.8023   8.5670  19.6841  26.2612  26.9137  28.4177

          k = 0.3333 0.3333 0.3333 (  1670 PWs)   bands (ev):

    -5.1282   3.9400  10.9586  10.9586  21.5939  21.5939  22.1566  28.5463

          k = 1.0000 0.3333 1.0000 (  1680 PWs)   bands (ev):

    -4.1149   6.2601   7.9329   7.9329  17.5101  21.0736  27.3831  27.3831

          k =-0.6667 0.0000 0.0000 (  1680 PWs)   bands (ev):

    -4.1149   6.2601   7.9329   7.9329  17.5101  21.0736  27.3831  27.3831

          k = 0.0000-0.0000 0.6667 (  1680 PWs)   bands (ev):

    -4.1149   6.2601   7.9329   7.9329  17.5101  21.0736  27.3831  27.3831

          k = 0.0000 0.0000 0.6667 (  1680 PWs)   bands (ev):

    -4.1149   6.2601   7.9329   7.9329  17.5101  21.0736  27.3831  27.3831

          k = 0.6667-0.0000 1.3333 (  1668 PWs)   bands (ev):

    -0.6171   2.4564   3.8023   8.5670  19.6841  26.2612  26.9137  28.4177

          k = 0.6667 0.0000-0.6667 (  1668 PWs)   bands (ev):

    -0.6171   2.4564   3.8023   8.5670  19.6841  26.2612  26.9137  28.4177

          k = 1.3333-0.0000 0.0000 (  1680 PWs)   bands (ev):

    -4.1149   6.2601   7.9329   7.9329  17.5101  21.0736  27.3831  27.3831

          k =-0.6667 0.0000-0.6667 (  1668 PWs)   bands (ev):

    -0.6171   2.4564   3.8023   8.5670  19.6841  26.2612  26.9137  28.4177

          k = 0.0000-0.0000 0.0000 (  1687 PWs)   bands (ev):

    -8.1913  13.2942  13.2942  13.2942  18.8993  18.8993  18.8993  27.0682

          k = 0.0000-0.6667 0.6667 (  1668 PWs)   bands (ev):

    -0.6171   2.4564   3.8023   8.5670  19.6841  26.2612  26.9137  28.4177

          k = 0.6667-0.6667 1.3333 (  1670 PWs)   bands (ev):

    -5.1282   3.9400  10.9586  10.9586  21.5939  21.5939  22.1566  28.5463

          k =-0.6667 0.6667 0.0000 (  1668 PWs)   bands (ev):

    -0.6171   2.4564   3.8023   8.5670  19.6841  26.2612  26.9137  28.4177

          k = 0.0000 0.6667 0.6667 (  1668 PWs)   bands (ev):

    -0.6171   2.4564   3.8023   8.5670  19.6841  26.2612  26.9137  28.4177

     highest occupied, lowest unoccupied level (ev):    13.2942   17.5101

     Writing output data file c.save

                                                                                

     bravais-lattice index     =            2
     lattice parameter (alat)  =       6.7034  a.u.
     unit-cell volume          =      75.3061 (a.u.)^3
     number of atoms/cell      =            2
     number of atomic types    =            1
     kinetic-energy cut-off    =     120.0000  Ry
     charge density cut-off    =     480.0000  Ry
     convergence threshold     =      1.0E-24
     beta                      =       0.7000
     number of iterations used =            4
     Exchange-correlation      = PZ ( 1  1  0  0 0 0)


     celldm(1)=    6.70343  celldm(2)=    0.00000  celldm(3)=    0.00000
     celldm(4)=    0.00000  celldm(5)=    0.00000  celldm(6)=    0.00000

     crystal axes: (cart. coord. in units of alat)
               a(1) = ( -0.5000  0.0000  0.5000 )  
               a(2) = (  0.0000  0.5000  0.5000 )  
               a(3) = ( -0.5000  0.5000  0.0000 )  

     reciprocal axes: (cart. coord. in units 2 pi/alat)
               b(1) = ( -1.0000 -1.0000  1.0000 )  
               b(2) = (  1.0000  1.0000  1.0000 )  
               b(3) = ( -1.0000  1.0000 -1.0000 )  


     Atoms inside the unit cell: 

     Cartesian axes

     site n.  atom      mass           positions (alat units)
        1     C   12.0110   tau(    1) = (    0.00000    0.00000    0.00000  )
        2     C   12.0110   tau(    2) = (   -0.25000    0.25000    0.25000  )

     Computing dynamical matrix for 
                    q = (   0.6666667  -0.0000000   0.6666667 )
 
      4 Sym.Ops. (no q -> -q+G )


     G cutoff =  546.3552  (    333 G-vectors)     FFT grid: ( 36, 36, 36)
     number of k points=    24

     PseudoPot. # 1 for  C read from file:
     ../C.pz-mt.fhi.UPF
     MD5 check sum: b7c38bc33a0cf75f44be89b84470f298
     Pseudo is Norm-conserving, Zval =  4.0
     Generated using FHI98PP, converted with fhi2upf.x v.5.0.2
     Using radial grid of  461 points,  2 beta functions with: 
                l(1) =   0
                l(2) =   1

     Mode symmetry, C_2v (mm2)  point group:


     Atomic displacements:
     There are   6 irreducible representations

     Representation     1      1 modes -A_1  D_1  S_1  To be done

     Representation     2      1 modes -A_1  D_1  S_1  To be done

     Representation     3      1 modes -A_2  D_2  S_2  To be done

     Representation     4      1 modes -B_1  D_3  S_3  To be done

     Representation     5      1 modes -B_2  D_4  S_4  To be done

     Representation     6      1 modes -B_2  D_4  S_4  To be done



     Alpha used in Ewald sum =   2.8000
     PHONON       :    39.20s CPU        43.47s WALL



     Representation #  1 mode #   1

     Self-consistent Calculation

      iter #   1 total cpu time :    43.7 secs   av.it.:   7.0
      thresh= 1.000E-02 alpha_mix =  0.700 |ddv_scf|^2 =  4.332E-05

      iter #   2 total cpu time :    44.4 secs   av.it.:   8.8
      thresh= 6.582E-04 alpha_mix =  0.700 |ddv_scf|^2 =  2.216E-05

      iter #   3 total cpu time :    44.5 secs   av.it.:   8.5
      thresh= 4.708E-04 alpha_mix =  0.700 |ddv_scf|^2 =  2.223E-07

      iter #   4 total cpu time :    44.6 secs   av.it.:   8.7
      thresh= 4.715E-05 alpha_mix =  0.700 |ddv_scf|^2 =  6.123E-10

      iter #   5 total cpu time :    44.7 secs   av.it.:   8.6
      thresh= 2.474E-06 alpha_mix =  0.700 |ddv_scf|^2 =  4.913E-12

      iter #   6 total cpu time :    44.8 secs   av.it.:   8.5
      thresh= 2.217E-07 alpha_mix =  0.700 |ddv_scf|^2 =  6.581E-14

      iter #   7 total cpu time :    44.9 secs   av.it.:   8.6
      thresh= 2.565E-08 alpha_mix =  0.700 |ddv_scf|^2 =  2.291E-15

      iter #   8 total cpu time :    44.9 secs   av.it.:   8.9
      thresh= 4.787E-09 alpha_mix =  0.700 |ddv_scf|^2 =  1.345E-15

      iter #   9 total cpu time :    45.0 secs   av.it.:   8.4
      thresh= 3.667E-09 alpha_mix =  0.700 |ddv_scf|^2 =  6.695E-18

      iter #  10 total cpu time :    45.7 secs   av.it.:   8.9
      thresh= 2.588E-10 alpha_mix =  0.700 |ddv_scf|^2 =  1.062E-18

      iter #  11 total cpu time :    46.3 secs   av.it.:   8.9
      thresh= 1.031E-10 alpha_mix =  0.700 |ddv_scf|^2 =  3.730E-20

      iter #  12 total cpu time :    47.2 secs   av.it.:   8.7
      thresh= 1.931E-11 alpha_mix =  0.700 |ddv_scf|^2 =  3.068E-21

      iter #  13 total cpu time :    47.8 secs   av.it.:   8.6
      thresh= 5.539E-12 alpha_mix =  0.700 |ddv_scf|^2 =  3.318E-23

      iter #  14 total cpu time :    48.6 secs   av.it.:   8.6
      thresh= 5.760E-13 alpha_mix =  0.700 |ddv_scf|^2 =  3.502E-24

      iter #  15 total cpu time :    49.4 secs   av.it.:   8.9
      thresh= 1.871E-13 alpha_mix =  0.700 |ddv_scf|^2 =  9.902E-25

     End of self-consistent calculation

     Convergence has been achieved 


     Representation #  2 mode #   2

     Self-consistent Calculation

      iter #   1 total cpu time :    49.6 secs   av.it.:   6.5
      thresh= 1.000E-02 alpha_mix =  0.700 |ddv_scf|^2 =  2.178E-05

      iter #   2 total cpu time :    50.0 secs   av.it.:   8.9
      thresh= 4.667E-04 alpha_mix =  0.700 |ddv_scf|^2 =  7.861E-06

      iter #   3 total cpu time :    50.1 secs   av.it.:   8.6
      thresh= 2.804E-04 alpha_mix =  0.700 |ddv_scf|^2 =  2.090E-07

      iter #   4 total cpu time :    50.5 secs   av.it.:   8.5
      thresh= 4.572E-05 alpha_mix =  0.700 |ddv_scf|^2 =  7.381E-10

      iter #   5 total cpu time :    50.9 secs   av.it.:   8.5
      thresh= 2.717E-06 alpha_mix =  0.700 |ddv_scf|^2 =  4.851E-12

      iter #   6 total cpu time :    51.1 secs   av.it.:   8.3
      thresh= 2.202E-07 alpha_mix =  0.700 |ddv_scf|^2 =  6.764E-14

      iter #   7 total cpu time :    52.1 secs   av.it.:   8.4
      thresh= 2.601E-08 alpha_mix =  0.700 |ddv_scf|^2 =  3.919E-15

      iter #   8 total cpu time :    52.8 secs   av.it.:   8.8
      thresh= 6.261E-09 alpha_mix =  0.700 |ddv_scf|^2 =  2.125E-15

      iter #   9 total cpu time :    54.2 secs   av.it.:   8.4
      thresh= 4.610E-09 alpha_mix =  0.700 |ddv_scf|^2 =  2.728E-18

      iter #  10 total cpu time :    54.2 secs   av.it.:   8.8
      thresh= 1.652E-10 alpha_mix =  0.700 |ddv_scf|^2 =  3.468E-19

      iter #  11 total cpu time :    54.3 secs   av.it.:   8.8
      thresh= 5.889E-11 alpha_mix =  0.700 |ddv_scf|^2 =  2.257E-20

      iter #  12 total cpu time :    54.4 secs   av.it.:   8.8
      thresh= 1.502E-11 alpha_mix =  0.700 |ddv_scf|^2 =  2.990E-22

      iter #  13 total cpu time :    54.4 secs   av.it.:   8.9
      thresh= 1.729E-12 alpha_mix =  0.700 |ddv_scf|^2 =  5.901E-24

      iter #  14 total cpu time :    54.5 secs   av.it.:   8.9
      thresh= 2.429E-13 alpha_mix =  0.700 |ddv_scf|^2 =  5.514E-25

     End of self-consistent calculation

     Convergence has been achieved 


     Representation #  3 mode #   3

     Self-consistent Calculation

      iter #   1 total cpu time :    54.6 secs   av.it.:   5.9
      thresh= 1.000E-02 alpha_mix =  0.700 |ddv_scf|^2 =  4.799E-06

      iter #   2 total cpu time :    54.8 secs   av.it.:   8.4
      thresh= 2.191E-04 alpha_mix =  0.700 |ddv_scf|^2 =  6.808E-08

      iter #   3 total cpu time :    55.0 secs   av.it.:   8.4
      thresh= 2.609E-05 alpha_mix =  0.700 |ddv_scf|^2 =  1.513E-10

      iter #   4 total cpu time :    55.1 secs   av.it.:   8.2
      thresh= 1.230E-06 alpha_mix =  0.700 |ddv_scf|^2 =  1.602E-12

      iter #   5 total cpu time :    57.2 secs   av.it.:   8.2
      thresh= 1.266E-07 alpha_mix =  0.700 |ddv_scf|^2 =  1.277E-15

      iter #   6 total cpu time :    57.8 secs   av.it.:   8.4
      thresh= 3.573E-09 alpha_mix =  0.700 |ddv_scf|^2 =  4.068E-17

      iter #   7 total cpu time :    58.2 secs   av.it.:   8.8
      thresh= 6.378E-10 alpha_mix =  0.700 |ddv_scf|^2 =  7.301E-20

      iter #   8 total cpu time :    59.8 secs   av.it.:   8.4
      thresh= 2.702E-11 alpha_mix =  0.700 |ddv_scf|^2 =  5.051E-21

      iter #   9 total cpu time :    59.9 secs   av.it.:   8.6
      thresh= 7.107E-12 alpha_mix =  0.700 |ddv_scf|^2 =  4.624E-24

      iter #  10 total cpu time :    60.0 secs   av.it.:   8.6
      thresh= 2.150E-13 alpha_mix =  0.700 |ddv_scf|^2 =  1.877E-25

     End of self-consistent calculation

     Convergence has been achieved 


     Representation #  4 mode #   4

     Self-consistent Calculation

      iter #   1 total cpu time :    60.1 secs   av.it.:   5.8
      thresh= 1.000E-02 alpha_mix =  0.700 |ddv_scf|^2 =  1.937E-07

      iter #   2 total cpu time :    61.9 secs   av.it.:   8.8
      thresh= 4.402E-05 alpha_mix =  0.700 |ddv_scf|^2 =  2.095E-09

      iter #   3 total cpu time :    63.5 secs   av.it.:   8.7
      thresh= 4.577E-06 alpha_mix =  0.700 |ddv_scf|^2 =  4.191E-11

      iter #   4 total cpu time :    64.4 secs   av.it.:   8.2
      thresh= 6.474E-07 alpha_mix =  0.700 |ddv_scf|^2 =  1.129E-14

      iter #   5 total cpu time :    64.7 secs   av.it.:   8.8
      thresh= 1.063E-08 alpha_mix =  0.700 |ddv_scf|^2 =  1.607E-16

      iter #   6 total cpu time :    64.9 secs   av.it.:   8.9
      thresh= 1.268E-09 alpha_mix =  0.700 |ddv_scf|^2 =  7.292E-19

      iter #   7 total cpu time :    65.1 secs   av.it.:   8.8
      thresh= 8.539E-11 alpha_mix =  0.700 |ddv_scf|^2 =  1.481E-21

      iter #   8 total cpu time :    65.2 secs   av.it.:   8.2
      thresh= 3.848E-12 alpha_mix =  0.700 |ddv_scf|^2 =  1.123E-22

      iter #   9 total cpu time :    65.3 secs   av.it.:   8.5
      thresh= 1.060E-12 alpha_mix =  0.700 |ddv_scf|^2 =  4.274E-26

     End of self-consistent calculation

     Convergence has been achieved 


     Representation #  5 mode #   5

     Self-consistent Calculation

      iter #   1 total cpu time :    65.4 secs   av.it.:   6.0
      thresh= 1.000E-02 alpha_mix =  0.700 |ddv_scf|^2 =  4.283E-06

      iter #   2 total cpu time :    65.7 secs   av.it.:   8.9
      thresh= 2.069E-04 alpha_mix =  0.700 |ddv_scf|^2 =  2.456E-06

      iter #   3 total cpu time :    65.8 secs   av.it.:   8.7
      thresh= 1.567E-04 alpha_mix =  0.700 |ddv_scf|^2 =  1.252E-08

      iter #   4 total cpu time :    65.9 secs   av.it.:   8.8
      thresh= 1.119E-05 alpha_mix =  0.700 |ddv_scf|^2 =  4.611E-11

      iter #   5 total cpu time :    66.0 secs   av.it.:   9.0
      thresh= 6.790E-07 alpha_mix =  0.700 |ddv_scf|^2 =  2.188E-12

      iter #   6 total cpu time :    66.6 secs   av.it.:   8.5
      thresh= 1.479E-07 alpha_mix =  0.700 |ddv_scf|^2 =  2.593E-15

      iter #   7 total cpu time :    68.3 secs   av.it.:   8.8
      thresh= 5.092E-09 alpha_mix =  0.700 |ddv_scf|^2 =  1.220E-16

      iter #   8 total cpu time :    68.5 secs   av.it.:   8.9
      thresh= 1.105E-09 alpha_mix =  0.700 |ddv_scf|^2 =  1.573E-18

      iter #   9 total cpu time :    69.6 secs   av.it.:   8.6
      thresh= 1.254E-10 alpha_mix =  0.700 |ddv_scf|^2 =  5.943E-20

      iter #  10 total cpu time :    70.9 secs   av.it.:   9.2
      thresh= 2.438E-11 alpha_mix =  0.700 |ddv_scf|^2 =  1.835E-21

      iter #  11 total cpu time :    71.2 secs   av.it.:   9.2
      thresh= 4.284E-12 alpha_mix =  0.700 |ddv_scf|^2 =  1.193E-22

      iter #  12 total cpu time :    71.6 secs   av.it.:   8.8
      thresh= 1.092E-12 alpha_mix =  0.700 |ddv_scf|^2 =  3.774E-24

      iter #  13 total cpu time :    71.7 secs   av.it.:   8.8
      thresh= 1.943E-13 alpha_mix =  0.700 |ddv_scf|^2 =  3.811E-26

     End of self-consistent calculation

     Convergence has been achieved 


     Representation #  6 mode #   6

     Self-consistent Calculation

      iter #   1 total cpu time :    71.8 secs   av.it.:   6.3
      thresh= 1.000E-02 alpha_mix =  0.700 |ddv_scf|^2 =  2.040E-05

      iter #   2 total cpu time :    72.1 secs   av.it.:   8.9
      thresh= 4.516E-04 alpha_mix =  0.700 |ddv_scf|^2 =  1.040E-05

      iter #   3 total cpu time :    72.6 secs   av.it.:   8.7
      thresh= 3.225E-04 alpha_mix =  0.700 |ddv_scf|^2 =  8.480E-08

      iter #   4 total cpu time :    72.7 secs   av.it.:   8.7
      thresh= 2.912E-05 alpha_mix =  0.700 |ddv_scf|^2 =  9.939E-11

      iter #   5 total cpu time :    73.1 secs   av.it.:   8.8
      thresh= 9.970E-07 alpha_mix =  0.700 |ddv_scf|^2 =  1.273E-12

      iter #   6 total cpu time :    73.7 secs   av.it.:   8.3
      thresh= 1.128E-07 alpha_mix =  0.700 |ddv_scf|^2 =  9.907E-15

      iter #   7 total cpu time :    74.0 secs   av.it.:   8.8
      thresh= 9.953E-09 alpha_mix =  0.700 |ddv_scf|^2 =  1.172E-16

      iter #   8 total cpu time :    74.6 secs   av.it.:   9.0
      thresh= 1.082E-09 alpha_mix =  0.700 |ddv_scf|^2 =  7.362E-19

      iter #   9 total cpu time :    76.1 secs   av.it.:   9.0
      thresh= 8.580E-11 alpha_mix =  0.700 |ddv_scf|^2 =  5.441E-20

      iter #  10 total cpu time :    76.2 secs   av.it.:   8.8
      thresh= 2.333E-11 alpha_mix =  0.700 |ddv_scf|^2 =  2.557E-21

      iter #  11 total cpu time :    76.2 secs   av.it.:   8.8
      thresh= 5.056E-12 alpha_mix =  0.700 |ddv_scf|^2 =  7.602E-22

      iter #  12 total cpu time :    76.3 secs   av.it.:   8.8
      thresh= 2.757E-12 alpha_mix =  0.700 |ddv_scf|^2 =  3.485E-24

      iter #  13 total cpu time :    76.3 secs   av.it.:   8.9
      thresh= 1.867E-13 alpha_mix =  0.700 |ddv_scf|^2 =  7.216E-26

     End of self-consistent calculation

     Convergence has been achieved 
 
     Number of q in the star =   12
     List of q in the star:
          1   0.666666667   0.000000000   0.666666667
          2   0.666666667   0.000000000  -0.666666667
          3  -0.666666667   0.000000000  -0.666666667
          4  -0.666666667   0.000000000   0.666666667
          5   0.000000000  -0.666666667   0.666666667
          6  -0.666666667   0.666666667   0.000000000
          7  -0.666666667  -0.666666667   0.000000000
          8   0.666666667   0.666666667   0.000000000
          9   0.666666667  -0.666666667   0.000000000
         10   0.000000000   0.666666667   0.666666667
         11   0.000000000   0.666666667  -0.666666667
         12   0.000000000  -0.666666667  -0.666666667

     Diagonalizing the dynamical matrix

     q = (    0.666666667  -0.000000000   0.666666667 ) 

 **************************************************************************
     freq (    1) =      19.616049 [THz] =     654.320956 [cm-1]
     freq (    2) =      26.986391 [THz] =     900.169114 [cm-1]
     freq (    3) =      27.542959 [THz] =     918.734214 [cm-1]
     freq (    4) =      31.647377 [THz] =    1055.642860 [cm-1]
     freq (    5) =      32.138774 [THz] =    1072.034093 [cm-1]
     freq (    6) =      35.630133 [THz] =    1188.493322 [cm-1]
 **************************************************************************

     Mode symmetry, C_2v (mm2)  point group:

     freq (  1 -  1) =        654.3  [cm-1]   --> B_1  D_3  S_3      
     freq (  2 -  2) =        900.2  [cm-1]   --> A_1  D_1  S_1      
     freq (  3 -  3) =        918.7  [cm-1]   --> B_2  D_4  S_4      
     freq (  4 -  4) =       1055.6  [cm-1]   --> B_2  D_4  S_4      
     freq (  5 -  5) =       1072.0  [cm-1]   --> A_2  D_2  S_2      
     freq (  6 -  6) =       1188.5  [cm-1]   --> A_1  D_1  S_1      
 
     init_run     :      0.04s CPU      0.07s WALL (       3 calls)
     electrons    :      0.66s CPU      0.75s WALL (       3 calls)

     Called by init_run:
     wfcinit      :      0.00s CPU      0.01s WALL (       3 calls)
     potinit      :      0.01s CPU      0.01s WALL (       3 calls)

     Called by electrons:
     c_bands      :      0.66s CPU      0.74s WALL (       3 calls)
     v_of_rho     :      0.00s CPU      0.00s WALL (       4 calls)

     Called by c_bands:
     init_us_2    :      0.02s CPU      0.03s WALL (    2215 calls)
     cegterg      :      0.45s CPU      0.48s WALL (      62 calls)

     Called by sum_band:

     Called by *egterg:
     h_psi        :     18.47s CPU     19.03s WALL (   26002 calls)
     g_psi        :      0.00s CPU      0.00s WALL (     588 calls)
     cdiaghg      :      0.10s CPU      0.11s WALL (     650 calls)

     Called by h_psi:
     h_psi:pot    :     18.43s CPU     18.99s WALL (   26002 calls)
     h_psi:calbec :      0.62s CPU      0.66s WALL (   26002 calls)
     vloc_psi     :     17.64s CPU     18.15s WALL (   26002 calls)
     add_vuspsi   :      0.10s CPU      0.10s WALL (   26002 calls)

     General routines
     calbec       :      2.12s CPU      2.19s WALL (   52494 calls)
     fft          :      0.29s CPU      0.30s WALL (     874 calls)
     ffts         :      0.08s CPU      0.08s WALL (     330 calls)
     fftw         :     40.91s CPU     41.67s WALL (  237054 calls)
     davcio       :      0.33s CPU      3.44s WALL (   13396 calls)
 
     Parallel routines
     fft_scatter  :     39.62s CPU     40.27s WALL (  238258 calls)
 
     PHONON       :  1m 9.95s CPU     1m16.41s WALL

     INITIALIZATION: 
     phq_setup    :      0.01s CPU      0.02s WALL (       4 calls)
     phq_init     :      0.03s CPU      0.03s WALL (       4 calls)
 
     phq_init     :      0.03s CPU      0.03s WALL (       4 calls)
     init_vloc    :      0.00s CPU      0.00s WALL (       4 calls)
     init_us_1    :      0.00s CPU      0.00s WALL (       4 calls)
 
     DYNAMICAL MATRIX:
     dynmat0      :      0.01s CPU      0.02s WALL (       4 calls)
     phqscf       :     63.96s CPU     69.28s WALL (       4 calls)
     dynmatrix    :      0.00s CPU      0.02s WALL (       4 calls)
 
     phqscf       :     63.96s CPU     69.28s WALL (       4 calls)
     solve_linter :     62.87s CPU     68.15s WALL (      16 calls)
     drhodv       :      1.07s CPU      1.09s WALL (      16 calls)
 
     dynmat0      :      0.01s CPU      0.02s WALL (       4 calls)
     dynmat_us    :      0.01s CPU      0.01s WALL (       4 calls)
     d2ionq       :      0.00s CPU      0.00s WALL (       4 calls)
 
     dynmat_us    :      0.01s CPU      0.01s WALL (       4 calls)
 
     phqscf       :     63.96s CPU     69.28s WALL (       4 calls)
     solve_linter :     62.87s CPU     68.15s WALL (      16 calls)
 
     solve_linter :     62.87s CPU     68.15s WALL (      16 calls)
     dvqpsi_us    :      0.22s CPU      0.23s WALL (     234 calls)
     ortho        :      0.23s CPU      0.24s WALL (    2507 calls)
     cgsolve      :     20.42s CPU     21.09s WALL (    2507 calls)
     incdrhoscf   :      9.55s CPU      9.65s WALL (    2495 calls)
     vpsifft      :     13.52s CPU     13.70s WALL (    2189 calls)
     dv_of_drho   :      0.28s CPU      0.28s WALL (     286 calls)
     mix_pot      :     12.21s CPU     15.37s WALL (     196 calls)
     psymdvscf    :      4.60s CPU      4.63s WALL (     188 calls)
 
     dvqpsi_us    :      0.22s CPU      0.23s WALL (     234 calls)
     dvqpsi_us_on :      0.01s CPU      0.01s WALL (     234 calls)
 
     cgsolve      :     20.42s CPU     21.09s WALL (    2507 calls)
     ch_psi       :     19.37s CPU     19.98s WALL (   25290 calls)
 
     ch_psi       :     19.37s CPU     19.98s WALL (   25290 calls)
     h_psi        :     18.47s CPU     19.03s WALL (   26002 calls)
     last         :      1.12s CPU      1.18s WALL (   25290 calls)
 
     h_psi        :     18.47s CPU     19.03s WALL (   26002 calls)
     add_vuspsi   :      0.10s CPU      0.10s WALL (   26002 calls)
 
     incdrhoscf   :      9.55s CPU      9.65s WALL (    2495 calls)
 
 
      General routines
     calbec       :      2.12s CPU      2.19s WALL (   52494 calls)
     fft          :      0.29s CPU      0.30s WALL (     874 calls)
     ffts         :      0.08s CPU      0.08s WALL (     330 calls)
     fftw         :     40.91s CPU     41.67s WALL (  237054 calls)
     davcio       :      0.33s CPU      3.44s WALL (   13396 calls)
     write_rec    :      0.23s CPU      0.59s WALL (     212 calls)
 
 
     PHONON       :  1m 9.95s CPU     1m16.41s WALL

 
   This run was terminated on:  12:25: 1  17Dec2020            

=------------------------------------------------------------------------------=
   JOB DONE.
=------------------------------------------------------------------------------=
