
     Program PWSCF v.6.1 (svn rev. 13369) starts on 17Dec2020 at 12:23:29 

     This program is part of the open-source Quantum ESPRESSO suite
     for quantum simulation of materials; please cite
         "P. Giannozzi et al., J. Phys.:Condens. Matter 21 395502 (2009);
          URL http://www.quantum-espresso.org", 
     in publications or presentations arising from this work. More details at
     http://www.quantum-espresso.org/quote

     Parallel version (MPI & OpenMP), running on      40 processor cores
     Number of MPI processes:                40
     Threads/MPI process:                     1
     R & G space division:  proc/nbgrp/npool/nimage =      40
     Waiting for input...
     Reading input from standard input

     Current dimensions of program PWSCF are:
     Max number of different atomic species (ntypx) = 10
     Max number of k-points (npk) =  40000
     Max angular momentum in pseudopotentials (lmaxx) =  3

     IMPORTANT: XC functional enforced from input :
     Exchange-correlation      = PZ ( 1  1  0  0 0 0)
     Any further DFT definition will be discarded
     Please, verify this is what you really want

               file C.pz-mt.fhi.UPF: wavefunction(s)  3d renormalized

     Subspace diagonalization in iterative solution of the eigenvalue problem:
     one sub-group per band group will be used
     scalapack distributed-memory algorithm (size of sub-group:  4*  4 procs)

 
     Parallelization info
     --------------------
     sticks:   dense  smooth     PW     G-vecs:    dense   smooth      PW
     Min          18      18      5                  332      332      55
     Max          19      19      6                  337      337      59
     Sum         745     745    235                13371    13371    2277
 


     bravais-lattice index     =            2
     lattice parameter (alat)  =       6.7034  a.u.
     unit-cell volume          =      75.3061 (a.u.)^3
     number of atoms/cell      =            2
     number of atomic types    =            1
     number of electrons       =         8.00
     number of Kohn-Sham states=            4
     kinetic-energy cutoff     =     120.0000  Ry
     charge density cutoff     =     480.0000  Ry
     convergence threshold     =      1.0E-20
     mixing beta               =       0.7000
     number of iterations used =            8  plain     mixing
     Exchange-correlation      = PZ ( 1  1  0  0 0 0)

     celldm(1)=   6.703426  celldm(2)=   0.000000  celldm(3)=   0.000000
     celldm(4)=   0.000000  celldm(5)=   0.000000  celldm(6)=   0.000000

     crystal axes: (cart. coord. in units of alat)
               a(1) = (  -0.500000   0.000000   0.500000 )  
               a(2) = (   0.000000   0.500000   0.500000 )  
               a(3) = (  -0.500000   0.500000   0.000000 )  

     reciprocal axes: (cart. coord. in units 2 pi/alat)
               b(1) = ( -1.000000 -1.000000  1.000000 )  
               b(2) = (  1.000000  1.000000  1.000000 )  
               b(3) = ( -1.000000  1.000000 -1.000000 )  


     PseudoPot. # 1 for  C read from file:
     ../C.pz-mt.fhi.UPF
     MD5 check sum: b7c38bc33a0cf75f44be89b84470f298
     Pseudo is Norm-conserving, Zval =  4.0
     Generated using FHI98PP, converted with fhi2upf.x v.5.0.2
     Using radial grid of  461 points,  2 beta functions with: 
                l(1) =   0
                l(2) =   1

     atomic species   valence    mass     pseudopotential
        C              4.00    12.01100      C( 1.00)

     48 Sym. Ops., with inversion, found (24 have fractional translation)



   Cartesian axes

     site n.     atom                  positions (alat units)
         1           C   tau(   1) = (   0.0000000   0.0000000   0.0000000  )
         2           C   tau(   2) = (  -0.2500000   0.2500000   0.2500000  )

     number of k points=    72
                       cart. coord. in units 2pi/alat
        k(    1) = (   0.0000000   0.0000000   0.0000000), wk =   0.0011574
        k(    2) = (  -0.0833333   0.0833333  -0.0833333), wk =   0.0092593
        k(    3) = (  -0.1666667   0.1666667  -0.1666667), wk =   0.0092593
        k(    4) = (  -0.2500000   0.2500000  -0.2500000), wk =   0.0092593
        k(    5) = (  -0.3333333   0.3333333  -0.3333333), wk =   0.0092593
        k(    6) = (  -0.4166667   0.4166667  -0.4166667), wk =   0.0092593
        k(    7) = (   0.5000000  -0.5000000   0.5000000), wk =   0.0046296
        k(    8) = (   0.0000000   0.1666667   0.0000000), wk =   0.0069444
        k(    9) = (  -0.0833333   0.2500000  -0.0833333), wk =   0.0277778
        k(   10) = (  -0.1666667   0.3333333  -0.1666667), wk =   0.0277778
        k(   11) = (  -0.2500000   0.4166667  -0.2500000), wk =   0.0277778
        k(   12) = (  -0.3333333   0.5000000  -0.3333333), wk =   0.0277778
        k(   13) = (   0.5833333  -0.4166667   0.5833333), wk =   0.0277778
        k(   14) = (   0.5000000  -0.3333333   0.5000000), wk =   0.0277778
        k(   15) = (   0.4166667  -0.2500000   0.4166667), wk =   0.0277778
        k(   16) = (   0.3333333  -0.1666667   0.3333333), wk =   0.0277778
        k(   17) = (   0.2500000  -0.0833333   0.2500000), wk =   0.0277778
        k(   18) = (   0.1666667  -0.0000000   0.1666667), wk =   0.0138889
        k(   19) = (   0.0000000   0.3333333   0.0000000), wk =   0.0069444
        k(   20) = (  -0.0833333   0.4166667  -0.0833333), wk =   0.0277778
        k(   21) = (  -0.1666667   0.5000000  -0.1666667), wk =   0.0277778
        k(   22) = (  -0.2500000   0.5833333  -0.2500000), wk =   0.0277778
        k(   23) = (   0.6666667  -0.3333333   0.6666667), wk =   0.0277778
        k(   24) = (   0.5833333  -0.2500000   0.5833333), wk =   0.0277778
        k(   25) = (   0.5000000  -0.1666667   0.5000000), wk =   0.0277778
        k(   26) = (   0.4166667  -0.0833333   0.4166667), wk =   0.0277778
        k(   27) = (   0.3333333   0.0000000   0.3333333), wk =   0.0138889
        k(   28) = (   0.0000000   0.5000000   0.0000000), wk =   0.0069444
        k(   29) = (  -0.0833333   0.5833333  -0.0833333), wk =   0.0277778
        k(   30) = (  -0.1666667   0.6666667  -0.1666667), wk =   0.0277778
        k(   31) = (   0.7500000  -0.2500000   0.7500000), wk =   0.0277778
        k(   32) = (   0.6666667  -0.1666667   0.6666667), wk =   0.0277778
        k(   33) = (   0.5833333  -0.0833333   0.5833333), wk =   0.0277778
        k(   34) = (   0.5000000   0.0000000   0.5000000), wk =   0.0138889
        k(   35) = (   0.0000000   0.6666667   0.0000000), wk =   0.0069444
        k(   36) = (  -0.0833333   0.7500000  -0.0833333), wk =   0.0277778
        k(   37) = (   0.8333333  -0.1666667   0.8333333), wk =   0.0277778
        k(   38) = (   0.7500000  -0.0833333   0.7500000), wk =   0.0277778
        k(   39) = (   0.6666667  -0.0000000   0.6666667), wk =   0.0138889
        k(   40) = (   0.0000000   0.8333333   0.0000000), wk =   0.0069444
        k(   41) = (   0.9166667  -0.0833333   0.9166667), wk =   0.0277778
        k(   42) = (   0.8333333   0.0000000   0.8333333), wk =   0.0138889
        k(   43) = (   0.0000000  -1.0000000   0.0000000), wk =   0.0034722
        k(   44) = (  -0.1666667   0.3333333   0.0000000), wk =   0.0277778
        k(   45) = (  -0.2500000   0.4166667  -0.0833333), wk =   0.0555556
        k(   46) = (  -0.3333333   0.5000000  -0.1666667), wk =   0.0555556
        k(   47) = (   0.5833333  -0.4166667   0.7500000), wk =   0.0555556
        k(   48) = (   0.5000000  -0.3333333   0.6666667), wk =   0.0277778
        k(   49) = (  -0.1666667   0.5000000   0.0000000), wk =   0.0277778
        k(   50) = (  -0.2500000   0.5833333  -0.0833333), wk =   0.0555556
        k(   51) = (   0.6666667  -0.3333333   0.8333333), wk =   0.0555556
        k(   52) = (   0.5833333  -0.2500000   0.7500000), wk =   0.0555556
        k(   53) = (   0.5000000  -0.1666667   0.6666667), wk =   0.0555556
        k(   54) = (   0.4166667  -0.0833333   0.5833333), wk =   0.0555556
        k(   55) = (   0.3333333   0.0000000   0.5000000), wk =   0.0277778
        k(   56) = (  -0.1666667   0.6666667  -0.0000000), wk =   0.0277778
        k(   57) = (   0.7500000  -0.2500000   0.9166667), wk =   0.0555556
        k(   58) = (   0.6666667  -0.1666667   0.8333333), wk =   0.0555556
        k(   59) = (   0.5833333  -0.0833333   0.7500000), wk =   0.0555556
        k(   60) = (   0.5000000   0.0000000   0.6666667), wk =   0.0277778
        k(   61) = (   0.8333333  -0.1666667   1.0000000), wk =   0.0277778
        k(   62) = (   0.7500000  -0.0833333   0.9166667), wk =   0.0555556
        k(   63) = (   0.6666667   0.0000000   0.8333333), wk =   0.0277778
        k(   64) = (  -0.1666667  -1.0000000  -0.0000000), wk =   0.0138889
        k(   65) = (   0.6666667  -0.3333333   1.0000000), wk =   0.0277778
        k(   66) = (   0.5833333  -0.2500000   0.9166667), wk =   0.0555556
        k(   67) = (   0.5000000  -0.1666667   0.8333333), wk =   0.0277778
        k(   68) = (   0.6666667  -0.1666667   1.0000000), wk =   0.0277778
        k(   69) = (   0.5833333  -0.0833333   0.9166667), wk =   0.0555556
        k(   70) = (   0.5000000   0.0000000   0.8333333), wk =   0.0277778
        k(   71) = (  -0.3333333  -1.0000000   0.0000000), wk =   0.0138889
        k(   72) = (  -0.5000000  -1.0000000   0.0000000), wk =   0.0069444

     Dense  grid:    13371 G-vectors     FFT dimensions: (  36,  36,  36)

     Estimated max dynamical RAM per process >       0.46MB

     Estimated total allocated dynamical RAM >      18.36MB

     Initial potential from superposition of free atoms

     starting charge    7.99993, renormalised to    8.00000
     Starting wfc are   18 randomized atomic wfcs

     total cpu time spent up to now is        0.4 secs

     per-process dynamical memory:    13.2 Mb

     Self-consistent Calculation

     iteration #  1     ecut=   120.00 Ry     beta=0.70
     Davidson diagonalization with overlap
     ethr =  1.00E-02,  avg # of iterations =  2.0

     total cpu time spent up to now is        0.8 secs

     total energy              =     -22.87768511 Ry
     Harris-Foulkes estimate   =     -22.94631623 Ry
     estimated scf accuracy    <       0.13080279 Ry

     iteration #  2     ecut=   120.00 Ry     beta=0.70
     Davidson diagonalization with overlap
     ethr =  1.64E-03,  avg # of iterations =  2.0

     total cpu time spent up to now is        1.2 secs

     total energy              =     -22.88975083 Ry
     Harris-Foulkes estimate   =     -22.89024176 Ry
     estimated scf accuracy    <       0.00187946 Ry

     iteration #  3     ecut=   120.00 Ry     beta=0.70
     Davidson diagonalization with overlap
     ethr =  2.35E-05,  avg # of iterations =  2.1

     total cpu time spent up to now is        1.6 secs

     total energy              =     -22.89012459 Ry
     Harris-Foulkes estimate   =     -22.89013533 Ry
     estimated scf accuracy    <       0.00007231 Ry

     iteration #  4     ecut=   120.00 Ry     beta=0.70
     Davidson diagonalization with overlap
     ethr =  9.04E-07,  avg # of iterations =  2.4

     total cpu time spent up to now is        2.1 secs

     total energy              =     -22.89014270 Ry
     Harris-Foulkes estimate   =     -22.89014438 Ry
     estimated scf accuracy    <       0.00000293 Ry

     iteration #  5     ecut=   120.00 Ry     beta=0.70
     Davidson diagonalization with overlap
     ethr =  3.66E-08,  avg # of iterations =  2.5

     total cpu time spent up to now is        2.6 secs

     total energy              =     -22.89014378 Ry
     Harris-Foulkes estimate   =     -22.89014379 Ry
     estimated scf accuracy    <       0.00000003 Ry

     iteration #  6     ecut=   120.00 Ry     beta=0.70
     Davidson diagonalization with overlap
     ethr =  3.38E-10,  avg # of iterations =  3.0

     total cpu time spent up to now is        3.2 secs

     total energy              =     -22.89014380 Ry
     Harris-Foulkes estimate   =     -22.89014380 Ry
     estimated scf accuracy    <          8.1E-10 Ry

     iteration #  7     ecut=   120.00 Ry     beta=0.70
     Davidson diagonalization with overlap
     ethr =  1.01E-11,  avg # of iterations =  2.2

     total cpu time spent up to now is        3.7 secs

     total energy              =     -22.89014380 Ry
     Harris-Foulkes estimate   =     -22.89014380 Ry
     estimated scf accuracy    <          1.0E-12 Ry

     iteration #  8     ecut=   120.00 Ry     beta=0.70
     Davidson diagonalization with overlap
     ethr =  1.00E-13,  avg # of iterations =  2.9

     total cpu time spent up to now is        4.2 secs

     total energy              =     -22.89014380 Ry
     Harris-Foulkes estimate   =     -22.89014380 Ry
     estimated scf accuracy    <          4.7E-13 Ry

     iteration #  9     ecut=   120.00 Ry     beta=0.70
     Davidson diagonalization with overlap
     ethr =  1.00E-13,  avg # of iterations =  1.0

     total cpu time spent up to now is        4.5 secs

     total energy              =     -22.89014380 Ry
     Harris-Foulkes estimate   =     -22.89014380 Ry
     estimated scf accuracy    <          7.8E-16 Ry

     iteration # 10     ecut=   120.00 Ry     beta=0.70
     Davidson diagonalization with overlap
     ethr =  1.00E-13,  avg # of iterations =  1.0

     total cpu time spent up to now is        4.8 secs

     total energy              =     -22.89014380 Ry
     Harris-Foulkes estimate   =     -22.89014380 Ry
     estimated scf accuracy    <          3.7E-17 Ry

     iteration # 11     ecut=   120.00 Ry     beta=0.70
     Davidson diagonalization with overlap
     ethr =  1.00E-13,  avg # of iterations =  1.0

     total cpu time spent up to now is        5.1 secs

     total energy              =     -22.89014380 Ry
     Harris-Foulkes estimate   =     -22.89014380 Ry
     estimated scf accuracy    <          2.3E-16 Ry

     iteration # 12     ecut=   120.00 Ry     beta=0.70
     Davidson diagonalization with overlap
     ethr =  1.00E-13,  avg # of iterations =  1.0

     total cpu time spent up to now is        5.3 secs

     total energy              =     -22.89014380 Ry
     Harris-Foulkes estimate   =     -22.89014380 Ry
     estimated scf accuracy    <          1.8E-17 Ry

     iteration # 13     ecut=   120.00 Ry     beta=0.70
     Davidson diagonalization with overlap
     ethr =  1.00E-13,  avg # of iterations =  1.0

     total cpu time spent up to now is        5.6 secs

     total energy              =     -22.89014380 Ry
     Harris-Foulkes estimate   =     -22.89014380 Ry
     estimated scf accuracy    <          4.6E-19 Ry

     iteration # 14     ecut=   120.00 Ry     beta=0.70
     Davidson diagonalization with overlap
     ethr =  1.00E-13,  avg # of iterations =  1.0

     total cpu time spent up to now is        5.9 secs

     total energy              =     -22.89014380 Ry
     Harris-Foulkes estimate   =     -22.89014380 Ry
     estimated scf accuracy    <          5.9E-19 Ry

     iteration # 15     ecut=   120.00 Ry     beta=0.70
     Davidson diagonalization with overlap
     ethr =  1.00E-13,  avg # of iterations =  1.0

     total cpu time spent up to now is        6.2 secs

     total energy              =     -22.89014380 Ry
     Harris-Foulkes estimate   =     -22.89014380 Ry
     estimated scf accuracy    <          2.1E-19 Ry

     iteration # 16     ecut=   120.00 Ry     beta=0.70
     Davidson diagonalization with overlap
     ethr =  1.00E-13,  avg # of iterations =  1.0

     total cpu time spent up to now is        6.5 secs

     total energy              =     -22.89014380 Ry
     Harris-Foulkes estimate   =     -22.89014380 Ry
     estimated scf accuracy    <          2.7E-19 Ry

     iteration # 17     ecut=   120.00 Ry     beta=0.70
     Davidson diagonalization with overlap
     ethr =  1.00E-13,  avg # of iterations =  1.0

     total cpu time spent up to now is        6.7 secs

     total energy              =     -22.89014380 Ry
     Harris-Foulkes estimate   =     -22.89014380 Ry
     estimated scf accuracy    <          2.6E-20 Ry

     iteration # 18     ecut=   120.00 Ry     beta=0.70
     Davidson diagonalization with overlap
     ethr =  1.00E-13,  avg # of iterations =  1.0

     total cpu time spent up to now is        7.0 secs

     total energy              =     -22.89014380 Ry
     Harris-Foulkes estimate   =     -22.89014380 Ry
     estimated scf accuracy    <          1.3E-20 Ry

     iteration # 19     ecut=   120.00 Ry     beta=0.70
     Davidson diagonalization with overlap
     ethr =  1.00E-13,  avg # of iterations =  1.0

     total cpu time spent up to now is        7.3 secs

     End of self-consistent calculation

          k = 0.0000 0.0000 0.0000 (  1687 PWs)   bands (ev):

    -8.1913  13.2942  13.2942  13.2942

          k =-0.0833 0.0833-0.0833 (  1672 PWs)   bands (ev):

    -7.9963  12.0771  12.9688  12.9688

          k =-0.1667 0.1667-0.1667 (  1678 PWs)   bands (ev):

    -7.4134   9.5591  12.2629  12.2629

          k =-0.2500 0.2500-0.2500 (  1657 PWs)   bands (ev):

    -6.4509   6.7278  11.5355  11.5355

          k =-0.3333 0.3333-0.3333 (  1670 PWs)   bands (ev):

    -5.1282   3.9400  10.9586  10.9586

          k =-0.4167 0.4167-0.4167 (  1673 PWs)   bands (ev):

    -3.5103   1.4013  10.5975  10.5975

          k = 0.5000-0.5000 0.5000 (  1676 PWs)   bands (ev):

    -2.2438  -0.1783  10.4754  10.4754

          k = 0.0000 0.1667 0.0000 (  1679 PWs)   bands (ev):

    -7.9313  12.3738  12.3738  12.7086

          k =-0.0833 0.2500-0.0833 (  1687 PWs)   bands (ev):

    -7.4779  10.4169  11.5644  12.3676

          k =-0.1667 0.3333-0.1667 (  1676 PWs)   bands (ev):

    -6.6420   7.7355  10.8387  11.6995

          k =-0.2500 0.4167-0.2500 (  1669 PWs)   bands (ev):

    -5.4385   4.9605  10.3302  10.9468

          k =-0.3333 0.5000-0.3333 (  1674 PWs)   bands (ev):

    -3.9086   2.3430  10.0882  10.2992

          k = 0.5833-0.4167 0.5833 (  1682 PWs)   bands (ev):

    -2.3124   0.2372   9.8446  10.1223

          k = 0.5000-0.3333 0.5000 (  1673 PWs)   bands (ev):

    -2.7950   0.8239   9.6298  10.4193

          k = 0.4167-0.2500 0.4167 (  1663 PWs)   bands (ev):

    -4.4500   3.1903   9.6815  10.9472

          k = 0.3333-0.1667 0.3333 (  1666 PWs)   bands (ev):

    -5.8792   5.8862  10.0094  11.6478

          k = 0.2500-0.0833 0.2500 (  1673 PWs)   bands (ev):

    -6.9626   8.6636  10.6032  12.4046

          k = 0.1667-0.0000 0.1667 (  1687 PWs)   bands (ev):

    -7.6720  11.0777  11.5368  12.9677

          k = 0.0000 0.3333 0.0000 (  1672 PWs)   bands (ev):

    -7.1550  10.6968  10.6968  11.1406

          k =-0.0833 0.4167-0.0833 (  1670 PWs)   bands (ev):

    -6.4491   8.6656   9.9394  10.6669

          k =-0.1667 0.5000-0.1667 (  1663 PWs)   bands (ev):

    -5.3721   6.1092   9.4242   9.9021

          k =-0.2500 0.5833-0.2500 (  1668 PWs)   bands (ev):

    -3.9538   3.5436   9.0499   9.2050

          k = 0.6667-0.3333 0.6667 (  1669 PWs)   bands (ev):

    -2.3202   1.2572   8.3241   9.2944

          k = 0.5833-0.2500 0.5833 (  1681 PWs)   bands (ev):

    -1.8575   0.7087   7.8298   9.6774

          k = 0.5000-0.1667 0.5000 (  1674 PWs)   bands (ev):

    -3.4252   2.7686   7.6235  10.3111

          k = 0.4167-0.0833 0.4167 (  1667 PWs)   bands (ev):

    -4.9383   5.2966   7.7459  11.1108

          k = 0.3333 0.0000 0.3333 (  1684 PWs)   bands (ev):

    -6.1321   7.6587   8.4538  11.9105

          k = 0.0000 0.5000 0.0000 (  1700 PWs)   bands (ev):

    -5.8747   8.9089   9.1327   9.1327

          k =-0.0833 0.5833-0.0833 (  1677 PWs)   bands (ev):

    -4.9285   6.9552   8.5561   8.5670

          k =-0.1667 0.6667-0.1667 (  1672 PWs)   bands (ev):

    -3.6340   4.7349   7.5503   8.3070

          k = 0.7500-0.2500 0.7500 (  1667 PWs)   bands (ev):

    -2.0668   2.5418   6.5551   8.3733

          k = 0.6667-0.1667 0.6667 (  1680 PWs)   bands (ev):

    -0.9003   1.1831   5.7983   8.7560

          k = 0.5833-0.0833 0.5833 (  1670 PWs)   bands (ev):

    -2.1014   2.6726   5.3795   9.4142

          k = 0.5000 0.0000 0.5000 (  1682 PWs)   bands (ev):

    -3.6536   4.6795   5.6316  10.2589

          k = 0.0000 0.6667 0.0000 (  1680 PWs)   bands (ev):

    -4.1149   6.2601   7.9329   7.9329

          k =-0.0833 0.7500-0.0833 (  1675 PWs)   bands (ev):

    -2.9509   4.7518   7.0185   7.6018

          k = 0.8333-0.1667 0.8333 (  1674 PWs)   bands (ev):

    -1.4892   3.2112   5.5591   7.6038

          k = 0.7500-0.0833 0.7500 (  1668 PWs)   bands (ev):

    -0.0445   1.8809   4.2777   7.9367

          k = 0.6667-0.0000 0.6667 (  1668 PWs)   bands (ev):

    -0.6171   2.4564   3.8023   8.5670

          k = 0.0000 0.8333 0.0000 (  1668 PWs)   bands (ev):

    -1.9196   3.4247   7.1881   7.1881

          k = 0.9167-0.0833 0.9167 (  1677 PWs)   bands (ev):

    -0.5800   2.0681   6.3742   7.1069

          k = 0.8333 0.0000 0.8333 (  1672 PWs)   bands (ev):

     0.7738   1.0939   4.9267   7.3646

          k = 0.0000-1.0000 0.0000 (  1660 PWs)   bands (ev):

     0.6354   0.6354   6.9362   6.9362

          k =-0.1667 0.3333 0.0000 (  1672 PWs)   bands (ev):

    -6.8980   9.3342   9.9455  11.9627

          k =-0.2500 0.4167-0.0833 (  1673 PWs)   bands (ev):

    -5.9413   6.9485   9.1054  11.2927

          k =-0.3333 0.5000-0.1667 (  1670 PWs)   bands (ev):

    -4.6287   4.2995   8.7201  10.5067

          k = 0.5833-0.4167 0.7500 (  1670 PWs)   bands (ev):

    -3.0290   1.8354   8.5975   9.8616

          k = 0.5000-0.3333 0.6667 (  1674 PWs)   bands (ev):

    -1.7908   0.3006   8.6050   9.5886

          k =-0.1667 0.5000 0.0000 (  1670 PWs)   bands (ev):

    -5.6227   7.6207   8.4350  10.0687

          k =-0.2500 0.5833-0.0833 (  1670 PWs)   bands (ev):

    -4.4360   5.4667   7.7019   9.3138

          k = 0.6667-0.3333 0.8333 (  1671 PWs)   bands (ev):

    -2.9353   3.0939   7.3300   8.6743

          k = 0.5833-0.2500 0.7500 (  1670 PWs)   bands (ev):

    -1.3954   1.1318   6.9308   8.5708

          k = 0.5000-0.1667 0.6667 (  1672 PWs)   bands (ev):

    -1.8661   1.7082   6.5844   8.9887

          k = 0.4167-0.0833 0.5833 (  1672 PWs)   bands (ev):

    -3.4723   3.9295   6.4940   9.7235

          k = 0.3333 0.0000 0.5000 (  1677 PWs)   bands (ev):

    -4.8739   6.0998   7.0134  10.5847

          k =-0.1667 0.6667-0.0000 (  1681 PWs)   bands (ev):

    -3.8729   5.8007   7.2789   8.0755

          k = 0.7500-0.2500 0.9167 (  1671 PWs)   bands (ev):

    -2.4913   4.1013   6.2771   7.5326

          k = 0.6667-0.1667 0.8333 (  1671 PWs)   bands (ev):

    -0.9244   2.2805   5.3077   7.5643

          k = 0.5833-0.0833 0.7500 (  1674 PWs)   bands (ev):

    -0.5453   1.9282   4.6203   8.0337

          k = 0.5000 0.0000 0.6667 (  1661 PWs)   bands (ev):

    -2.0241   3.4984   4.6261   8.8052

          k = 0.8333-0.1667 1.0000 (  1672 PWs)   bands (ev):

    -1.6988   3.4406   6.5831   6.8399

          k = 0.7500-0.0833 0.9167 (  1672 PWs)   bands (ev):

    -0.2043   2.2060   5.1764   6.8161

          k = 0.6667 0.0000 0.8333 (  1675 PWs)   bands (ev):

     0.6099   1.7108   3.9480   7.2681

          k =-0.1667-1.0000-0.0000 (  1678 PWs)   bands (ev):

     0.8040   0.8040   6.4096   6.4096

          k = 0.6667-0.3333 1.0000 (  1678 PWs)   bands (ev):

    -3.1594   4.7155   5.9257   8.4514

          k = 0.5833-0.2500 0.9167 (  1672 PWs)   bands (ev):

    -1.6216   2.9192   5.4804   7.6398

          k = 0.5000-0.1667 0.8333 (  1670 PWs)   bands (ev):

    -0.4618   1.5702   5.4735   7.2953

          k = 0.6667-0.1667 1.0000 (  1666 PWs)   bands (ev):

    -1.0659   3.2448   5.3316   6.4122

          k = 0.5833-0.0833 0.9167 (  1671 PWs)   bands (ev):

     0.3569   2.1133   4.5265   6.1195

          k = 0.5000 0.0000 0.8333 (  1669 PWs)   bands (ev):

    -0.1539   2.5459   4.2269   6.6704

          k =-0.3333-1.0000 0.0000 (  1668 PWs)   bands (ev):

     1.2193   1.2193   5.3851   5.3851

          k =-0.5000-1.0000 0.0000 (  1648 PWs)   bands (ev):

     1.4946   1.4946   4.8439   4.8439

     highest occupied level (ev):    13.2942

!    total energy              =     -22.89014380 Ry
     Harris-Foulkes estimate   =     -22.89014380 Ry
     estimated scf accuracy    <          4.3E-21 Ry

     The total energy is the sum of the following terms:

     one-electron contribution =       8.01345402 Ry
     hartree contribution      =       1.90801459 Ry
     xc contribution           =      -7.09676899 Ry
     ewald contribution        =     -25.71484342 Ry

     convergence has been achieved in  19 iterations

     Writing output data file c.save
 
     init_run     :      0.28s CPU      0.34s WALL (       1 calls)
     electrons    :      6.78s CPU      6.94s WALL (       1 calls)

     Called by init_run:
     wfcinit      :      0.27s CPU      0.28s WALL (       1 calls)
     potinit      :      0.00s CPU      0.04s WALL (       1 calls)

     Called by electrons:
     c_bands      :      6.59s CPU      6.70s WALL (      19 calls)
     sum_band     :      0.17s CPU      0.18s WALL (      19 calls)
     v_of_rho     :      0.00s CPU      0.00s WALL (      20 calls)
     mix_rho      :      0.01s CPU      0.01s WALL (      19 calls)

     Called by c_bands:
     init_us_2    :      0.03s CPU      0.03s WALL (    2808 calls)
     cegterg      :      6.50s CPU      6.61s WALL (    1368 calls)

     Called by sum_band:

     Called by *egterg:
     h_psi        :      1.06s CPU      1.08s WALL (    3619 calls)
     g_psi        :      0.00s CPU      0.00s WALL (    2179 calls)
     cdiaghg      :      3.30s CPU      3.35s WALL (    3547 calls)

     Called by h_psi:
     h_psi:pot    :      1.05s CPU      1.07s WALL (    3619 calls)
     h_psi:calbec :      0.07s CPU      0.07s WALL (    3619 calls)
     vloc_psi     :      0.95s CPU      0.97s WALL (    3619 calls)
     add_vuspsi   :      0.02s CPU      0.02s WALL (    3619 calls)

     General routines
     calbec       :      0.06s CPU      0.07s WALL (    3619 calls)
     fft          :      0.01s CPU      0.01s WALL (      79 calls)
     fftw         :      1.04s CPU      1.06s WALL (   34164 calls)
 
     Parallel routines
     fft_scatter  :      0.78s CPU      0.80s WALL (   34243 calls)
 
     PWSCF        :     7.48s CPU        11.02s WALL

 
   This run was terminated on:  12:23:40  17Dec2020            

=------------------------------------------------------------------------------=
   JOB DONE.
=------------------------------------------------------------------------------=
