
     Program DYNMAT v.6.1 (svn rev. 13369) starts on  8Dec2020 at 10:57:16 

     This program is part of the open-source Quantum ESPRESSO suite
     for quantum simulation of materials; please cite
         "P. Giannozzi et al., J. Phys.:Condens. Matter 21 395502 (2009);
          URL http://www.quantum-espresso.org", 
     in publications or presentations arising from this work. More details at
     http://www.quantum-espresso.org/quote

     Parallel version (MPI & OpenMP), running on      40 processor cores
     Number of MPI processes:                40
     Threads/MPI process:                     1
     R & G space division:  proc/nbgrp/npool/nimage =      40

     Reading Dynamical Matrix from file ./_ph0/c.dyn1
     ...Force constants read
     ...epsilon and Z* read
     A direction for q was not specified:TO-LO splitting will be absent

     Polarizability (A^3 units)
     multiply by 0.170214 for Clausius-Mossotti correction
        12.987228    0.000000    0.000000
         0.000000   12.987228    0.000000
         0.000000    0.000000   12.987228

     IR activities are in (D/A)^2/amu units

# mode   [cm-1]    [THz]      IR
    1      0.00    0.0000    0.0000
    2      0.00    0.0000    0.0000
    3      0.00    0.0000    0.0000
    4   1632.12   48.9296    0.0000
    5   1632.12   48.9296    0.0000
    6   1632.12   48.9296    0.0000
 
     DYNMAT       :     0.00s CPU         0.02s WALL

 
   This run was terminated on:  10:57:16   8Dec2020            

=------------------------------------------------------------------------------=
   JOB DONE.
=------------------------------------------------------------------------------=
