
     Program PWSCF v.6.1 (svn rev. 13369) starts on  8Dec2020 at 10:56:16 

     This program is part of the open-source Quantum ESPRESSO suite
     for quantum simulation of materials; please cite
         "P. Giannozzi et al., J. Phys.:Condens. Matter 21 395502 (2009);
          URL http://www.quantum-espresso.org", 
     in publications or presentations arising from this work. More details at
     http://www.quantum-espresso.org/quote

     Parallel version (MPI & OpenMP), running on      40 processor cores
     Number of MPI processes:                40
     Threads/MPI process:                     1
     R & G space division:  proc/nbgrp/npool/nimage =      40
     Waiting for input...
     Reading input from standard input

     Current dimensions of program PWSCF are:
     Max number of different atomic species (ntypx) = 10
     Max number of k-points (npk) =  40000
     Max angular momentum in pseudopotentials (lmaxx) =  3

     IMPORTANT: XC functional enforced from input :
     Exchange-correlation      = PZ ( 1  1  0  0 0 0)
     Any further DFT definition will be discarded
     Please, verify this is what you really want

               file C.pz-mt.fhi.UPF: wavefunction(s)  3d renormalized

     Subspace diagonalization in iterative solution of the eigenvalue problem:
     one sub-group per band group will be used
     scalapack distributed-memory algorithm (size of sub-group:  4*  4 procs)

 
     Parallelization info
     --------------------
     sticks:   dense  smooth     PW     G-vecs:    dense   smooth      PW
     Min          18      18      5                  332      332      55
     Max          19      19      6                  337      337      59
     Sum         745     745    235                13371    13371    2277
 


     bravais-lattice index     =            2
     lattice parameter (alat)  =       6.7034  a.u.
     unit-cell volume          =      75.3061 (a.u.)^3
     number of atoms/cell      =            2
     number of atomic types    =            1
     number of electrons       =         8.00
     number of Kohn-Sham states=            8
     kinetic-energy cutoff     =     120.0000  Ry
     charge density cutoff     =     480.0000  Ry
     convergence threshold     =      1.0E-15
     mixing beta               =       0.7000
     number of iterations used =            8  local-TF  mixing
     Exchange-correlation      = PZ ( 1  1  0  0 0 0)
     nstep                     =           50


     celldm(1)=   6.703426  celldm(2)=   0.000000  celldm(3)=   0.000000
     celldm(4)=   0.000000  celldm(5)=   0.000000  celldm(6)=   0.000000

     crystal axes: (cart. coord. in units of alat)
               a(1) = (  -0.500000   0.000000   0.500000 )  
               a(2) = (   0.000000   0.500000   0.500000 )  
               a(3) = (  -0.500000   0.500000   0.000000 )  

     reciprocal axes: (cart. coord. in units 2 pi/alat)
               b(1) = ( -1.000000 -1.000000  1.000000 )  
               b(2) = (  1.000000  1.000000  1.000000 )  
               b(3) = ( -1.000000  1.000000 -1.000000 )  


     PseudoPot. # 1 for  C read from file:
     ../C.pz-mt.fhi.UPF
     MD5 check sum: b7c38bc33a0cf75f44be89b84470f298
     Pseudo is Norm-conserving, Zval =  4.0
     Generated using FHI98PP, converted with fhi2upf.x v.5.0.2
     Using radial grid of  461 points,  2 beta functions with: 
                l(1) =   0
                l(2) =   1

     atomic species   valence    mass     pseudopotential
        C              4.00    12.01100      C( 1.00)

     48 Sym. Ops., with inversion, found (24 have fractional translation)



   Cartesian axes

     site n.     atom                  positions (alat units)
         1           C   tau(   1) = (   0.0000000   0.0000000   0.0000000  )
         2           C   tau(   2) = (  -0.2500000   0.2500000   0.2500000  )

     number of k points=    29
                       cart. coord. in units 2pi/alat
        k(    1) = (   0.0000000   0.0000000   0.0000000), wk =   0.0039062
        k(    2) = (  -0.1250000   0.1250000  -0.1250000), wk =   0.0312500
        k(    3) = (  -0.2500000   0.2500000  -0.2500000), wk =   0.0312500
        k(    4) = (  -0.3750000   0.3750000  -0.3750000), wk =   0.0312500
        k(    5) = (   0.5000000  -0.5000000   0.5000000), wk =   0.0156250
        k(    6) = (   0.0000000   0.2500000   0.0000000), wk =   0.0234375
        k(    7) = (  -0.1250000   0.3750000  -0.1250000), wk =   0.0937500
        k(    8) = (  -0.2500000   0.5000000  -0.2500000), wk =   0.0937500
        k(    9) = (   0.6250000  -0.3750000   0.6250000), wk =   0.0937500
        k(   10) = (   0.5000000  -0.2500000   0.5000000), wk =   0.0937500
        k(   11) = (   0.3750000  -0.1250000   0.3750000), wk =   0.0937500
        k(   12) = (   0.2500000   0.0000000   0.2500000), wk =   0.0468750
        k(   13) = (   0.0000000   0.5000000   0.0000000), wk =   0.0234375
        k(   14) = (  -0.1250000   0.6250000  -0.1250000), wk =   0.0937500
        k(   15) = (   0.7500000  -0.2500000   0.7500000), wk =   0.0937500
        k(   16) = (   0.6250000  -0.1250000   0.6250000), wk =   0.0937500
        k(   17) = (   0.5000000   0.0000000   0.5000000), wk =   0.0468750
        k(   18) = (   0.0000000   0.7500000   0.0000000), wk =   0.0234375
        k(   19) = (   0.8750000  -0.1250000   0.8750000), wk =   0.0937500
        k(   20) = (   0.7500000   0.0000000   0.7500000), wk =   0.0468750
        k(   21) = (   0.0000000  -1.0000000   0.0000000), wk =   0.0117188
        k(   22) = (  -0.2500000   0.5000000   0.0000000), wk =   0.0937500
        k(   23) = (   0.6250000  -0.3750000   0.8750000), wk =   0.1875000
        k(   24) = (   0.5000000  -0.2500000   0.7500000), wk =   0.0937500
        k(   25) = (   0.7500000  -0.2500000   1.0000000), wk =   0.0937500
        k(   26) = (   0.6250000  -0.1250000   0.8750000), wk =   0.1875000
        k(   27) = (   0.5000000   0.0000000   0.7500000), wk =   0.0937500
        k(   28) = (  -0.2500000  -1.0000000   0.0000000), wk =   0.0468750
        k(   29) = (  -0.5000000  -1.0000000   0.0000000), wk =   0.0234375

     Dense  grid:    13371 G-vectors     FFT dimensions: (  36,  36,  36)

     Estimated max dynamical RAM per process >       0.52MB

     Estimated total allocated dynamical RAM >      20.98MB

     Initial potential from superposition of free atoms

     starting charge    7.99993, renormalised to    8.00000
     Starting wfc are   18 randomized atomic wfcs

     total cpu time spent up to now is        0.4 secs

     per-process dynamical memory:     9.7 Mb

     Self-consistent Calculation

     iteration #  1     ecut=   120.00 Ry     beta=0.70
     Davidson diagonalization with overlap
     ethr =  1.00E-02,  avg # of iterations =  2.9

     total cpu time spent up to now is        0.9 secs

     total energy              =     -22.89689608 Ry
     Harris-Foulkes estimate   =     -22.94687280 Ry
     estimated scf accuracy    <       0.12998581 Ry

     iteration #  2     ecut=   120.00 Ry     beta=0.70
     Davidson diagonalization with overlap
     ethr =  1.62E-03,  avg # of iterations =  1.3

     total cpu time spent up to now is        1.2 secs

     total energy              =     -22.88689660 Ry
     Harris-Foulkes estimate   =     -22.90117169 Ry
     estimated scf accuracy    <       0.02652989 Ry

     iteration #  3     ecut=   120.00 Ry     beta=0.70
     Davidson diagonalization with overlap
     ethr =  3.32E-04,  avg # of iterations =  2.1

     total cpu time spent up to now is        1.6 secs

     total energy              =     -22.89005754 Ry
     Harris-Foulkes estimate   =     -22.89001623 Ry
     estimated scf accuracy    <       0.00012125 Ry

     iteration #  4     ecut=   120.00 Ry     beta=0.70
     Davidson diagonalization with overlap
     ethr =  1.52E-06,  avg # of iterations =  2.1

     total cpu time spent up to now is        2.1 secs

     total energy              =     -22.89008657 Ry
     Harris-Foulkes estimate   =     -22.89008997 Ry
     estimated scf accuracy    <       0.00000889 Ry

     iteration #  5     ecut=   120.00 Ry     beta=0.70
     Davidson diagonalization with overlap
     ethr =  1.11E-07,  avg # of iterations =  2.0

     total cpu time spent up to now is        2.4 secs

     total energy              =     -22.89008736 Ry
     Harris-Foulkes estimate   =     -22.89008748 Ry
     estimated scf accuracy    <       0.00000024 Ry

     iteration #  6     ecut=   120.00 Ry     beta=0.70
     Davidson diagonalization with overlap
     ethr =  3.03E-09,  avg # of iterations =  2.2

     total cpu time spent up to now is        2.9 secs

     total energy              =     -22.89008739 Ry
     Harris-Foulkes estimate   =     -22.89008739 Ry
     estimated scf accuracy    <          1.0E-09 Ry

     iteration #  7     ecut=   120.00 Ry     beta=0.70
     Davidson diagonalization with overlap
     ethr =  1.27E-11,  avg # of iterations =  2.7

     total cpu time spent up to now is        3.4 secs

     total energy              =     -22.89008739 Ry
     Harris-Foulkes estimate   =     -22.89008739 Ry
     estimated scf accuracy    <          5.1E-10 Ry

     iteration #  8     ecut=   120.00 Ry     beta=0.70
     Davidson diagonalization with overlap
     ethr =  6.40E-12,  avg # of iterations =  2.2

     total cpu time spent up to now is        3.8 secs

     total energy              =     -22.89008739 Ry
     Harris-Foulkes estimate   =     -22.89008739 Ry
     estimated scf accuracy    <          2.3E-12 Ry

     iteration #  9     ecut=   120.00 Ry     beta=0.70
     Davidson diagonalization with overlap
     ethr =  1.00E-13,  avg # of iterations =  2.0

     total cpu time spent up to now is        4.2 secs

     total energy              =     -22.89008739 Ry
     Harris-Foulkes estimate   =     -22.89008739 Ry
     estimated scf accuracy    <          9.9E-14 Ry

     iteration # 10     ecut=   120.00 Ry     beta=0.70
     Davidson diagonalization with overlap
     ethr =  1.00E-13,  avg # of iterations =  1.0

     total cpu time spent up to now is        4.5 secs

     total energy              =     -22.89008739 Ry
     Harris-Foulkes estimate   =     -22.89008739 Ry
     estimated scf accuracy    <          2.3E-15 Ry

     iteration # 11     ecut=   120.00 Ry     beta=0.70
     Davidson diagonalization with overlap
     ethr =  1.00E-13,  avg # of iterations =  1.0

     total cpu time spent up to now is        4.7 secs

     End of self-consistent calculation

          k = 0.0000 0.0000 0.0000 (  1687 PWs)   bands (ev):

    -8.1911  13.2945  13.2945  13.2945  18.8995  18.8995  18.8995  27.0685

          k =-0.1250 0.1250-0.1250 (  1696 PWs)   bands (ev):

    -7.7528  10.8953  12.6367  12.6367  19.7634  19.7634  20.2306  27.3508

          k =-0.2500 0.2500-0.2500 (  1657 PWs)   bands (ev):

    -6.4507   6.7281  11.5359  11.5359  21.1082  21.1082  21.6403  28.0730

          k =-0.3750 0.3750-0.3750 (  1667 PWs)   bands (ev):

    -4.3467   2.6253  10.7494  10.7494  21.7011  21.7011  22.3188  28.7084

          k = 0.5000-0.5000 0.5000 (  1676 PWs)   bands (ev):

    -2.2435  -0.1781  10.4757  10.4757  21.7722  21.7722  22.5144  28.8796

          k = 0.0000 0.2500 0.0000 (  1691 PWs)   bands (ev):

    -7.6069  11.5516  11.5516  12.0265  18.5049  21.1288  21.1288  26.9313

          k =-0.1250 0.3750-0.1250 (  1670 PWs)   bands (ev):

    -6.5933   8.2351  10.3921  11.2936  19.1722  22.7296  22.7513  26.3083

          k =-0.2500 0.5000-0.2500 (  1671 PWs)   bands (ev):

    -4.7521   4.2025   9.7410  10.1178  20.3442  23.4178  23.5735  26.8049

          k = 0.6250-0.3750 0.6250 (  1673 PWs)   bands (ev):

    -2.3406   0.6933   9.1548   9.7422  20.9504  23.1392  23.8445  28.4396

          k = 0.5000-0.2500 0.5000 (  1674 PWs)   bands (ev):

    -3.1501   1.7350   8.7149  10.3649  21.5524  22.4889  23.7218  28.6673

          k = 0.3750-0.1250 0.3750 (  1668 PWs)   bands (ev):

    -5.4536   5.5598   8.9244  11.4441  21.4437  22.0317  23.0263  27.5571

          k = 0.2500 0.0000 0.2500 (  1683 PWs)   bands (ev):

    -7.0266   9.3541  10.0195  12.5343  20.0649  21.4046  21.5527  27.3299

          k = 0.0000 0.5000 0.0000 (  1700 PWs)   bands (ev):

    -5.8745   8.9092   9.1330   9.1330  17.7923  23.6236  24.9215  24.9215

          k =-0.1250 0.6250-0.1250 (  1670 PWs)   bands (ev):

    -4.3221   5.8592   8.0766   8.3970  18.5233  22.6708  26.2240  26.2977

          k = 0.7500-0.2500 0.7500 (  1667 PWs)   bands (ev):

    -2.0666   2.5420   6.5554   8.3736  19.4165  24.7620  26.1479  26.7664

          k = 0.6250-0.1250 0.6250 (  1674 PWs)   bands (ev):

    -1.3296   1.6989   5.5412   9.0551  20.1831  25.1116  26.7401  28.1336

          k = 0.5000 0.0000 0.5000 (  1682 PWs)   bands (ev):

    -3.6533   4.6798   5.6319  10.2593  21.2860  23.3404  25.7281  27.3654

          k = 0.0000 0.7500 0.0000 (  1680 PWs)   bands (ev):

    -3.0677   4.8510   7.5007   7.5007  17.4897  20.0568  28.4617  28.4617

          k = 0.8750-0.1250 0.8750 (  1677 PWs)   bands (ev):

    -1.0750   2.7634   5.8688   7.3171  18.3189  20.3414  28.9951  29.2796

          k = 0.7500 0.0000 0.7500 (  1666 PWs)   bands (ev):

     0.4992   1.6642   3.8318   7.8815  19.0119  24.0876  27.7109  29.0265

          k = 0.0000-1.0000 0.0000 (  1660 PWs)   bands (ev):

     0.6357   0.6357   6.9365   6.9365  18.1023  18.1023  30.1486  30.1486

          k =-0.2500 0.5000 0.0000 (  1668 PWs)   bands (ev):

    -5.3091   6.8612   7.7538  10.4060  19.9143  23.3866  24.9203  25.1793

          k = 0.6250-0.3750 0.8750 (  1673 PWs)   bands (ev):

    -3.2470   3.4818   7.0189   9.1849  21.2889  22.9919  25.8592  26.6794

          k = 0.5000-0.2500 0.7500 (  1676 PWs)   bands (ev):

    -1.2304   0.8700   7.0047   8.5573  21.5612  22.8924  26.5100  28.1953

          k = 0.7500-0.2500 1.0000 (  1662 PWs)   bands (ev):

    -2.5463   4.4293   6.2426   7.2842  19.6723  21.9055  26.3996  28.4742

          k = 0.6250-0.1250 0.8750 (  1671 PWs)   bands (ev):

    -0.2873   2.2144   4.8189   6.8730  20.8506  24.1844  25.9840  28.3152

          k = 0.5000 0.0000 0.7500 (  1665 PWs)   bands (ev):

    -1.0997   3.0034   4.3327   7.7681  21.6696  24.1058  26.5199  27.9262

          k =-0.2500-1.0000 0.0000 (  1674 PWs)   bands (ev):

     0.9957   0.9957   5.8989   5.8989  20.2076  20.2076  28.9274  28.9274

          k =-0.5000-1.0000 0.0000 (  1648 PWs)   bands (ev):

     1.4949   1.4949   4.8442   4.8442  23.8513  23.8513  25.8051  25.8051

     highest occupied, lowest unoccupied level (ev):    13.2945   17.4897

!    total energy              =     -22.89008739 Ry
     Harris-Foulkes estimate   =     -22.89008739 Ry
     estimated scf accuracy    <          9.7E-17 Ry

     The total energy is the sum of the following terms:

     one-electron contribution =       8.01339523 Ry
     hartree contribution      =       1.90819087 Ry
     xc contribution           =      -7.09683007 Ry
     ewald contribution        =     -25.71484342 Ry

     convergence has been achieved in  11 iterations

     Forces acting on atoms (cartesian axes, Ry/au):

     atom    1 type  1   force =     0.00000000    0.00000000    0.00000000
     atom    2 type  1   force =    -0.00000000   -0.00000000   -0.00000000

     Total force =     0.000000     Total SCF correction =     0.000000


     Computing stress (Cartesian axis) and pressure

          total   stress  (Ry/bohr**3)                   (kbar)     P= -103.54
  -0.00070383   0.00000000  -0.00000000       -103.54      0.00     -0.00
   0.00000000  -0.00070383  -0.00000000          0.00   -103.54     -0.00
  -0.00000000  -0.00000000  -0.00070383         -0.00     -0.00   -103.54


     BFGS Geometry Optimization

     number of scf cycles    =   1
     number of bfgs steps    =   0

     enthalpy new            =     -22.8900873911 Ry

     new trust radius        =       0.0305390461 bohr
     new conv_thr            =            1.0E-15 Ry

     new unit-cell volume =     71.40045 a.u.^3 (    10.58045 Ang^3 )
     density =      3.77011 g/cm^3

CELL_PARAMETERS (alat=  6.70342551)
  -0.491202074  -0.000000000   0.491202074
   0.000000000   0.491202074   0.491202074
  -0.491202074   0.491202074   0.000000000

ATOMIC_POSITIONS (crystal)
C       -0.000000000   0.000000000  -0.000000000
C        0.250000000   0.250000000   0.250000000



     Writing output data file c.save
     NEW-OLD atomic charge density approx. for the potential
     extrapolated charge    7.56239, renormalised to    8.00000

     total cpu time spent up to now is        4.9 secs

     per-process dynamical memory:    11.2 Mb

     Self-consistent Calculation

     iteration #  1     ecut=   120.00 Ry     beta=0.70
     Davidson diagonalization with overlap
     ethr =  1.00E-06,  avg # of iterations =  4.0

     total cpu time spent up to now is        5.5 secs

     total energy              =     -22.88689074 Ry
     Harris-Foulkes estimate   =     -22.57963381 Ry
     estimated scf accuracy    <       0.00143136 Ry

     iteration #  2     ecut=   120.00 Ry     beta=0.70
     Davidson diagonalization with overlap
     ethr =  1.79E-05,  avg # of iterations =  3.1

     total cpu time spent up to now is        6.1 secs

     total energy              =     -22.88965500 Ry
     Harris-Foulkes estimate   =     -22.88974999 Ry
     estimated scf accuracy    <       0.00031690 Ry

     iteration #  3     ecut=   120.00 Ry     beta=0.70
     Davidson diagonalization with overlap
     ethr =  3.96E-06,  avg # of iterations =  1.0

     total cpu time spent up to now is        6.4 secs

     total energy              =     -22.88960125 Ry
     Harris-Foulkes estimate   =     -22.88966081 Ry
     estimated scf accuracy    <       0.00011685 Ry

     iteration #  4     ecut=   120.00 Ry     beta=0.70
     Davidson diagonalization with overlap
     ethr =  1.46E-06,  avg # of iterations =  2.0

     total cpu time spent up to now is        6.8 secs

     total energy              =     -22.88961194 Ry
     Harris-Foulkes estimate   =     -22.88961250 Ry
     estimated scf accuracy    <       0.00000106 Ry

     iteration #  5     ecut=   120.00 Ry     beta=0.70
     Davidson diagonalization with overlap
     ethr =  1.32E-08,  avg # of iterations =  2.7

     total cpu time spent up to now is        7.3 secs

     total energy              =     -22.88961225 Ry
     Harris-Foulkes estimate   =     -22.88961233 Ry
     estimated scf accuracy    <       0.00000015 Ry

     iteration #  6     ecut=   120.00 Ry     beta=0.70
     Davidson diagonalization with overlap
     ethr =  1.82E-09,  avg # of iterations =  2.1

     total cpu time spent up to now is        7.7 secs

     total energy              =     -22.88961226 Ry
     Harris-Foulkes estimate   =     -22.88961226 Ry
     estimated scf accuracy    <          1.9E-09 Ry

     iteration #  7     ecut=   120.00 Ry     beta=0.70
     Davidson diagonalization with overlap
     ethr =  2.42E-11,  avg # of iterations =  2.5

     total cpu time spent up to now is        8.2 secs

     total energy              =     -22.88961226 Ry
     Harris-Foulkes estimate   =     -22.88961226 Ry
     estimated scf accuracy    <          1.8E-11 Ry

     iteration #  8     ecut=   120.00 Ry     beta=0.70
     Davidson diagonalization with overlap
     ethr =  2.26E-13,  avg # of iterations =  2.2

     total cpu time spent up to now is        8.6 secs

     total energy              =     -22.88961226 Ry
     Harris-Foulkes estimate   =     -22.88961226 Ry
     estimated scf accuracy    <          1.3E-12 Ry

     iteration #  9     ecut=   120.00 Ry     beta=0.70
     Davidson diagonalization with overlap
     ethr =  1.00E-13,  avg # of iterations =  1.2

     total cpu time spent up to now is        8.9 secs

     total energy              =     -22.88961226 Ry
     Harris-Foulkes estimate   =     -22.88961226 Ry
     estimated scf accuracy    <          8.1E-15 Ry

     iteration # 10     ecut=   120.00 Ry     beta=0.70
     Davidson diagonalization with overlap
     ethr =  1.00E-13,  avg # of iterations =  1.0

     total cpu time spent up to now is        9.2 secs

     total energy              =     -22.88961226 Ry
     Harris-Foulkes estimate   =     -22.88961226 Ry
     estimated scf accuracy    <          5.1E-15 Ry

     iteration # 11     ecut=   120.00 Ry     beta=0.70
     Davidson diagonalization with overlap
     ethr =  1.00E-13,  avg # of iterations =  1.0

     total cpu time spent up to now is        9.4 secs

     End of self-consistent calculation

          k = 0.0000 0.0000 0.0000 (  1687 PWs)   bands (ev):

    -7.9363  14.2727  14.2727  14.2727  20.0316  20.0316  20.0316  29.2731

          k =-0.1272 0.1272-0.1272 (  1696 PWs)   bands (ev):

    -7.4820  11.7728  13.5769  13.5769  20.9451  20.9451  21.4895  29.4607

          k =-0.2545 0.2545-0.2545 (  1657 PWs)   bands (ev):

    -6.1312   7.4521  12.4213  12.4213  22.3455  22.3455  23.1206  29.9199

          k =-0.3817 0.3817-0.3817 (  1667 PWs)   bands (ev):

    -3.9397   3.1920  11.5998  11.5998  22.9289  22.9289  23.9805  30.2757

          k = 0.5090-0.5090 0.5090 (  1676 PWs)   bands (ev):

    -1.6700   0.1979  11.3146  11.3146  22.9834  22.9834  24.2417  30.3459

          k = 0.0000 0.2545 0.0000 (  1691 PWs)   bands (ev):

    -7.3309  12.4263  12.4263  13.0027  19.6386  22.3946  22.3946  28.8937

          k =-0.1272 0.3817-0.1272 (  1670 PWs)   bands (ev):

    -6.2797   9.0172  11.2094  12.2129  20.3458  24.0966  24.1447  27.9289

          k =-0.2545 0.5090-0.2545 (  1671 PWs)   bands (ev):

    -4.3657   4.8365  10.5312  10.9780  21.5484  24.7627  25.1561  28.3205

          k = 0.6362-0.3817 0.6362 (  1673 PWs)   bands (ev):

    -1.8156   1.1504   9.9648  10.5377  22.1492  24.4391  25.5355  29.9922

          k = 0.5090-0.2545 0.5090 (  1674 PWs)   bands (ev):

    -2.6854   2.2602   9.4971  11.1950  22.7911  23.7620  25.3819  30.2851

          k = 0.3817-0.1272 0.3817 (  1668 PWs)   bands (ev):

    -5.0957   6.2461   9.7061  12.3306  22.6924  23.3595  24.5098  29.2831

          k = 0.2545 0.0000 0.2545 (  1683 PWs)   bands (ev):

    -6.7291  10.1963  10.8234  13.4776  21.2537  22.7193  22.8864  29.2460

          k = 0.0000 0.5090 0.0000 (  1700 PWs)   bands (ev):

    -5.5343   9.8243   9.8864   9.8864  18.9225  24.9465  26.3955  26.3955

          k =-0.1272 0.6362-0.1272 (  1670 PWs)   bands (ev):

    -3.9218   6.6012   8.8411   9.1171  19.6785  23.9146  27.7560  27.9178

          k = 0.7634-0.2545 0.7634 (  1667 PWs)   bands (ev):

    -1.5612   3.1288   7.2589   9.0957  20.5700  26.1345  27.6495  28.5074

          k = 0.6362-0.1272 0.6362 (  1674 PWs)   bands (ev):

    -0.7659   2.2191   6.1975   9.8136  21.3580  26.5569  28.5075  29.7770

          k = 0.5090 0.0000 0.5090 (  1682 PWs)   bands (ev):

    -3.2216   5.3880   6.2459  11.0813  22.5339  24.6989  27.2864  29.1641

          k = 0.0000 0.7634 0.0000 (  1680 PWs)   bands (ev):

    -2.6199   5.6206   8.1779   8.1779  18.6081  21.1966  30.1469  30.1469

          k = 0.8907-0.1272 0.8907 (  1677 PWs)   bands (ev):

    -0.5431   3.4606   6.4598   7.9868  19.4431  21.5289  30.7093  31.0649

          k = 0.7634 0.0000 0.7634 (  1666 PWs)   bands (ev):

     1.1679   2.2893   4.2916   8.5799  20.1440  25.4662  29.3346  30.8645

          k = 0.0000-1.0179 0.0000 (  1660 PWs)   bands (ev):

     1.2322   1.2322   7.5880   7.5880  19.2121  19.2121  31.9561  31.9561

          k =-0.2545 0.5090 0.0000 (  1668 PWs)   bands (ev):

    -4.9466   7.6378   8.4562  11.2564  21.1278  24.7326  26.4054  26.7181

          k = 0.6362-0.3817 0.8907 (  1673 PWs)   bands (ev):

    -2.7972   4.0998   7.7384   9.9566  22.5156  24.3293  27.5451  28.2122

          k = 0.5090-0.2545 0.7634 (  1676 PWs)   bands (ev):

    -0.6276   1.3110   7.7454   9.2814  22.7201  24.3296  28.2447  29.8397

          k = 0.7634-0.2545 1.0179 (  1662 PWs)   bands (ev):

    -2.0733   5.1891   6.8722   7.9386  20.8744  23.1042  28.0318  30.1809

          k = 0.6362-0.1272 0.8907 (  1671 PWs)   bands (ev):

     0.3130   2.8374   5.4018   7.5098  22.0489  25.4906  27.6430  30.0620

          k = 0.5090 0.0000 0.7634 (  1665 PWs)   bands (ev):

    -0.5447   3.6828   4.8660   8.4597  22.8743  25.4960  28.2153  29.6525

          k =-0.2545-1.0179 0.0000 (  1674 PWs)   bands (ev):

     1.6242   1.6242   6.4933   6.4933  21.3975  21.3975  30.6751  30.6751

          k =-0.5090-1.0179 0.0000 (  1648 PWs)   bands (ev):

     2.1861   2.1861   5.3551   5.3551  25.0811  25.0811  27.4959  27.4959

     highest occupied, lowest unoccupied level (ev):    14.2727   18.6081

!    total energy              =     -22.88961226 Ry
     Harris-Foulkes estimate   =     -22.88961226 Ry
     estimated scf accuracy    <          1.9E-17 Ry

     The total energy is the sum of the following terms:

     one-electron contribution =       8.61574977 Ry
     hartree contribution      =       1.85677018 Ry
     xc contribution           =      -7.18670994 Ry
     ewald contribution        =     -26.17542227 Ry

     convergence has been achieved in  11 iterations

     Forces acting on atoms (cartesian axes, Ry/au):

     atom    1 type  1   force =     0.00000000    0.00000000    0.00000000
     atom    2 type  1   force =    -0.00000000   -0.00000000   -0.00000000

     Total force =     0.000000     Total SCF correction =     0.000000


     Computing stress (Cartesian axis) and pressure

          total   stress  (Ry/bohr**3)                   (kbar)     P=  147.66
   0.00100379  -0.00000000   0.00000000        147.66     -0.00      0.00
   0.00000000   0.00100379  -0.00000000          0.00    147.66     -0.00
   0.00000000  -0.00000000   0.00100379          0.00     -0.00    147.66


     number of scf cycles    =   2
     number of bfgs steps    =   1

     enthalpy old            =     -22.8900873911 Ry
     enthalpy new            =     -22.8896122610 Ry

     CASE: enthalpy_new > enthalpy_old

     new trust radius        =       0.0129375713 bohr
     new conv_thr            =            1.0E-15 Ry

     new unit-cell volume =     73.61980 a.u.^3 (    10.90933 Ang^3 )
     density =      3.65645 g/cm^3

CELL_PARAMETERS (alat=  6.70342551)
  -0.496239613  -0.000000000   0.496239613
   0.000000000   0.496239613   0.496239613
  -0.496239613   0.496239613   0.000000000

ATOMIC_POSITIONS (crystal)
C       -0.000000000   0.000000000  -0.000000000
C        0.250000000   0.250000000   0.250000000



     Writing output data file c.save
     NEW-OLD atomic charge density approx. for the potential
     extrapolated charge    8.24117, renormalised to    8.00000

     total cpu time spent up to now is        9.5 secs

     per-process dynamical memory:    12.2 Mb

     Self-consistent Calculation

     iteration #  1     ecut=   120.00 Ry     beta=0.70
     Davidson diagonalization with overlap
     ethr =  1.00E-06,  avg # of iterations =  3.8

     total cpu time spent up to now is       10.2 secs

     total energy              =     -22.88985612 Ry
     Harris-Foulkes estimate   =     -23.05847643 Ry
     estimated scf accuracy    <       0.00036437 Ry

     iteration #  2     ecut=   120.00 Ry     beta=0.70
     Davidson diagonalization with overlap
     ethr =  4.55E-06,  avg # of iterations =  3.3

     total cpu time spent up to now is       10.8 secs

     total energy              =     -22.89071650 Ry
     Harris-Foulkes estimate   =     -22.89075316 Ry
     estimated scf accuracy    <       0.00012345 Ry

     iteration #  3     ecut=   120.00 Ry     beta=0.70
     Davidson diagonalization with overlap
     ethr =  1.54E-06,  avg # of iterations =  1.0

     total cpu time spent up to now is       11.1 secs

     total energy              =     -22.89069065 Ry
     Harris-Foulkes estimate   =     -22.89071844 Ry
     estimated scf accuracy    <       0.00005026 Ry

     iteration #  4     ecut=   120.00 Ry     beta=0.70
     Davidson diagonalization with overlap
     ethr =  6.28E-07,  avg # of iterations =  2.0

     total cpu time spent up to now is       11.5 secs

     total energy              =     -22.89069368 Ry
     Harris-Foulkes estimate   =     -22.89069527 Ry
     estimated scf accuracy    <       0.00000076 Ry

     iteration #  5     ecut=   120.00 Ry     beta=0.70
     Davidson diagonalization with overlap
     ethr =  9.46E-09,  avg # of iterations =  2.7

     total cpu time spent up to now is       12.0 secs

     total energy              =     -22.89069503 Ry
     Harris-Foulkes estimate   =     -22.89069390 Ry
     estimated scf accuracy    <       0.00000006 Ry

     iteration #  6     ecut=   120.00 Ry     beta=0.70
     Davidson diagonalization with overlap
     ethr =  7.70E-10,  avg # of iterations =  2.0

     total cpu time spent up to now is       12.4 secs

     total energy              =     -22.89069503 Ry
     Harris-Foulkes estimate   =     -22.89069503 Ry
     estimated scf accuracy    <          1.4E-09 Ry

     iteration #  7     ecut=   120.00 Ry     beta=0.70
     Davidson diagonalization with overlap
     ethr =  1.69E-11,  avg # of iterations =  2.6

     total cpu time spent up to now is       12.8 secs

     total energy              =     -22.89069503 Ry
     Harris-Foulkes estimate   =     -22.89069503 Ry
     estimated scf accuracy    <          9.0E-12 Ry

     iteration #  8     ecut=   120.00 Ry     beta=0.70
     Davidson diagonalization with overlap
     ethr =  1.12E-13,  avg # of iterations =  2.1

     total cpu time spent up to now is       13.2 secs

     total energy              =     -22.89069503 Ry
     Harris-Foulkes estimate   =     -22.89069503 Ry
     estimated scf accuracy    <          1.3E-12 Ry

     iteration #  9     ecut=   120.00 Ry     beta=0.70
     Davidson diagonalization with overlap
     ethr =  1.00E-13,  avg # of iterations =  1.1

     total cpu time spent up to now is       13.5 secs

     total energy              =     -22.89069503 Ry
     Harris-Foulkes estimate   =     -22.89069503 Ry
     estimated scf accuracy    <          9.3E-15 Ry

     iteration # 10     ecut=   120.00 Ry     beta=0.70
     Davidson diagonalization with overlap
     ethr =  1.00E-13,  avg # of iterations =  1.0

     total cpu time spent up to now is       13.8 secs

     total energy              =     -22.89069503 Ry
     Harris-Foulkes estimate   =     -22.89069503 Ry
     estimated scf accuracy    <          3.4E-15 Ry

     iteration # 11     ecut=   120.00 Ry     beta=0.70
     Davidson diagonalization with overlap
     ethr =  1.00E-13,  avg # of iterations =  1.0

     total cpu time spent up to now is       14.1 secs

     End of self-consistent calculation

          k = 0.0000 0.0000 0.0000 (  1687 PWs)   bands (ev):

    -8.0845  13.7056  13.7056  13.7056  19.3759  19.3759  19.3759  27.9964

          k =-0.1259 0.1259-0.1259 (  1696 PWs)   bands (ev):

    -7.6394  11.2643  13.0319  13.0319  20.2605  20.2605  20.7603  28.2398

          k =-0.2519 0.2519-0.2519 (  1657 PWs)   bands (ev):

    -6.3167   7.0325  11.9080  11.9080  21.6289  21.6289  22.2640  28.8530

          k =-0.3778 0.3778-0.3778 (  1667 PWs)   bands (ev):

    -4.1756   2.8632  11.1067  11.1067  22.2182  22.2182  23.0183  29.3712

          k = 0.5038-0.5038 0.5038 (  1676 PWs)   bands (ev):

    -2.0031  -0.0197  10.8282  10.8282  22.2824  22.2824  23.2409  29.4994

          k = 0.0000 0.2519 0.0000 (  1691 PWs)   bands (ev):

    -7.4913  11.9193  11.9193  12.4370  18.9817  21.6612  21.6612  27.7630

          k =-0.1259 0.3778-0.1259 (  1670 PWs)   bands (ev):

    -6.4618   8.5642  10.7356  11.6798  19.6659  23.3172  23.3258  26.9963

          k =-0.2519 0.5038-0.2519 (  1671 PWs)   bands (ev):

    -4.5898   4.4690  10.0731  10.4792  20.8517  23.9839  24.2409  27.4434

          k = 0.6297-0.3778 0.6297 (  1673 PWs)   bands (ev):

    -2.1197   0.8850   9.4952  10.0765  21.4568  23.6866  24.5550  29.0939

          k = 0.5038-0.2519 0.5038 (  1674 PWs)   bands (ev):

    -2.9546   1.9554   9.0435  10.7137  22.0763  23.0250  24.4186  29.3494

          k = 0.3778-0.1259 0.3778 (  1668 PWs)   bands (ev):

    -5.3033   5.8484   9.2528  11.8166  21.9692  22.5933  23.6492  28.2847

          k = 0.2519 0.0000 0.2519 (  1683 PWs)   bands (ev):

    -6.9019   9.7085  10.3573  12.9307  20.5651  21.9573  22.1146  28.1393

          k = 0.0000 0.5038 0.0000 (  1700 PWs)   bands (ev):

    -5.7317   9.2941   9.4497   9.4497  18.2673  24.1852  25.5415  25.5415

          k =-0.1259 0.6297-0.1259 (  1670 PWs)   bands (ev):

    -4.1539   6.1720   8.3972   8.6997  19.0091  23.1974  26.8685  26.9780

          k = 0.7557-0.2519 0.7557 (  1667 PWs)   bands (ev):

    -1.8539   2.7890   6.8505   8.6771  19.9026  25.3429  26.7800  27.4952

          k = 0.6297-0.1259 0.6297 (  1674 PWs)   bands (ev):

    -1.0924   1.9179   5.8164   9.3738  20.6789  25.7199  27.4835  28.8266

          k = 0.5038 0.0000 0.5038 (  1682 PWs)   bands (ev):

    -3.4718   4.9778   5.8894  10.6047  21.8131  23.9121  26.3838  28.1209

          k = 0.0000 0.7557 0.0000 (  1680 PWs)   bands (ev):

    -2.8795   5.1748   7.7854   7.7854  17.9598  20.5378  29.1704  29.1704

          k = 0.8816-0.1259 0.8816 (  1677 PWs)   bands (ev):

    -0.8512   3.0566   6.1171   7.5986  18.7920  20.8418  29.7160  30.0297

          k = 0.7557 0.0000 0.7557 (  1666 PWs)   bands (ev):

     0.7798   1.9272   4.0252   8.1750  19.4889  24.6691  28.3939  29.7982

          k = 0.0000-1.0076 0.0000 (  1660 PWs)   bands (ev):

     0.8867   0.8867   7.2103   7.2103  18.5693  18.5693  30.9084  30.9084

          k =-0.2519 0.5038 0.0000 (  1668 PWs)   bands (ev):

    -5.1569   7.1882   8.0487  10.7632  20.4247  23.9569  25.5449  25.8271

          k = 0.6297-0.3778 0.8816 (  1673 PWs)   bands (ev):

    -3.0578   3.7418   7.3210   9.5091  21.8061  23.5566  26.5674  27.3242

          k = 0.5038-0.2519 0.7557 (  1676 PWs)   bands (ev):

    -0.9776   1.0561   7.3156   8.8617  22.0496  23.4992  27.2377  28.8874

          k = 0.7557-0.2519 1.0076 (  1662 PWs)   bands (ev):

    -2.3474   4.7488   6.5069   7.5593  20.1780  22.4121  27.0853  29.1918

          k = 0.6297-0.1259 0.8816 (  1671 PWs)   bands (ev):

    -0.0348   2.4772   5.0628   7.1406  21.3559  24.7353  26.6812  29.0489

          k = 0.5038 0.0000 0.7557 (  1665 PWs)   bands (ev):

    -0.8661   3.2893   4.5562   8.0586  22.1782  24.6915  27.2322  28.6520

          k =-0.2519-1.0076 0.0000 (  1674 PWs)   bands (ev):

     1.2601   1.2601   6.1486   6.1486  20.7088  20.7088  29.6619  29.6619

          k =-0.5038-1.0076 0.0000 (  1648 PWs)   bands (ev):

     1.7851   1.7851   5.0591   5.0591  24.3693  24.3693  26.5161  26.5161

     highest occupied, lowest unoccupied level (ev):    13.7056   17.9598

!    total energy              =     -22.89069503 Ry
     Harris-Foulkes estimate   =     -22.89069503 Ry
     estimated scf accuracy    <          5.0E-18 Ry

     The total energy is the sum of the following terms:

     one-electron contribution =       8.26762978 Ry
     hartree contribution      =       1.88613899 Ry
     xc contribution           =      -7.13475937 Ry
     ewald contribution        =     -25.90970443 Ry

     convergence has been achieved in  11 iterations

     Forces acting on atoms (cartesian axes, Ry/au):

     atom    1 type  1   force =     0.00000000   -0.00000000    0.00000000
     atom    2 type  1   force =    -0.00000000    0.00000000   -0.00000000

     Total force =     0.000000     Total SCF correction =     0.000000


     Computing stress (Cartesian axis) and pressure

          total   stress  (Ry/bohr**3)                   (kbar)     P=   -2.55
  -0.00001732  -0.00000000  -0.00000000         -2.55     -0.00     -0.00
   0.00000000  -0.00001732  -0.00000000          0.00     -2.55     -0.00
  -0.00000000  -0.00000000  -0.00001732         -0.00     -0.00     -2.55


     number of scf cycles    =   3
     number of bfgs steps    =   1

     enthalpy old            =     -22.8900873911 Ry
     enthalpy new            =     -22.8906950322 Ry

     CASE: enthalpy_new < enthalpy_old

     new trust radius        =       0.0003229649 bohr
     new conv_thr            =            1.0E-17 Ry

     new unit-cell volume =     73.57824 a.u.^3 (    10.90317 Ang^3 )
     density =      3.65852 g/cm^3

CELL_PARAMETERS (alat=  6.70342551)
  -0.496146219  -0.000000000   0.496146219
  -0.000000000   0.496146219   0.496146219
  -0.496146219   0.496146219   0.000000000

ATOMIC_POSITIONS (crystal)
C        0.000000000   0.000000000  -0.000000000
C        0.250000000   0.250000000   0.250000000



     Writing output data file c.save
     NEW-OLD atomic charge density approx. for the potential
     extrapolated charge    7.99548, renormalised to    8.00000

     total cpu time spent up to now is       14.2 secs

     per-process dynamical memory:    13.4 Mb

     Self-consistent Calculation

     iteration #  1     ecut=   120.00 Ry     beta=0.70
     Davidson diagonalization with overlap
     ethr =  1.00E-06,  avg # of iterations =  1.0

     Threshold (ethr) on eigenvalues was too large:
     Diagonalizing with lowered threshold

     Davidson diagonalization with overlap
     ethr =  1.87E-09,  avg # of iterations =  1.9

     total cpu time spent up to now is       14.7 secs

     total energy              =     -22.89069277 Ry
     Harris-Foulkes estimate   =     -22.88755501 Ry
     estimated scf accuracy    <       0.00000014 Ry

     iteration #  2     ecut=   120.00 Ry     beta=0.70
     Davidson diagonalization with overlap
     ethr =  1.75E-09,  avg # of iterations =  3.2

     total cpu time spent up to now is       15.3 secs

     total energy              =     -22.89069307 Ry
     Harris-Foulkes estimate   =     -22.89069308 Ry
     estimated scf accuracy    <       0.00000004 Ry

     iteration #  3     ecut=   120.00 Ry     beta=0.70
     Davidson diagonalization with overlap
     ethr =  4.98E-10,  avg # of iterations =  1.0

     total cpu time spent up to now is       15.6 secs

     total energy              =     -22.89069364 Ry
     Harris-Foulkes estimate   =     -22.89069307 Ry
     estimated scf accuracy    <       0.00000002 Ry

     iteration #  4     ecut=   120.00 Ry     beta=0.70
     Davidson diagonalization with overlap
     ethr =  1.95E-10,  avg # of iterations =  2.0

     total cpu time spent up to now is       16.0 secs

     total energy              =     -22.89069364 Ry
     Harris-Foulkes estimate   =     -22.89069364 Ry
     estimated scf accuracy    <          1.8E-10 Ry

     iteration #  5     ecut=   120.00 Ry     beta=0.70
     Davidson diagonalization with overlap
     ethr =  2.30E-12,  avg # of iterations =  2.7

     total cpu time spent up to now is       16.5 secs

     total energy              =     -22.89069364 Ry
     Harris-Foulkes estimate   =     -22.89069364 Ry
     estimated scf accuracy    <          2.0E-11 Ry

     iteration #  6     ecut=   120.00 Ry     beta=0.70
     Davidson diagonalization with overlap
     ethr =  2.56E-13,  avg # of iterations =  2.0

     total cpu time spent up to now is       16.9 secs

     total energy              =     -22.89069364 Ry
     Harris-Foulkes estimate   =     -22.89069364 Ry
     estimated scf accuracy    <          3.8E-13 Ry

     iteration #  7     ecut=   120.00 Ry     beta=0.70
     Davidson diagonalization with overlap
     ethr =  1.00E-13,  avg # of iterations =  1.0

     total cpu time spent up to now is       17.1 secs

     total energy              =     -22.89069364 Ry
     Harris-Foulkes estimate   =     -22.89069364 Ry
     estimated scf accuracy    <          2.5E-15 Ry

     iteration #  8     ecut=   120.00 Ry     beta=0.70
     Davidson diagonalization with overlap
     ethr =  1.00E-13,  avg # of iterations =  1.0

     total cpu time spent up to now is       17.4 secs

     total energy              =     -22.89069364 Ry
     Harris-Foulkes estimate   =     -22.89069364 Ry
     estimated scf accuracy    <          2.4E-16 Ry

     iteration #  9     ecut=   120.00 Ry     beta=0.70
     Davidson diagonalization with overlap
     ethr =  1.00E-13,  avg # of iterations =  1.0

     total cpu time spent up to now is       17.7 secs

     End of self-consistent calculation

          k = 0.0000 0.0000 0.0000 (  1687 PWs)   bands (ev):

    -8.0818  13.7159  13.7159  13.7159  19.3878  19.3878  19.3878  28.0197

          k =-0.1260 0.1260-0.1260 (  1696 PWs)   bands (ev):

    -7.6365  11.2736  13.0418  13.0418  20.2730  20.2730  20.7736  28.2621

          k =-0.2519 0.2519-0.2519 (  1657 PWs)   bands (ev):

    -6.3133   7.0401  11.9173  11.9173  21.6420  21.6420  22.2797  28.8725

          k =-0.3779 0.3779-0.3779 (  1667 PWs)   bands (ev):

    -4.1713   2.8692  11.1157  11.1157  22.2312  22.2312  23.0359  29.3878

          k = 0.5039-0.5039 0.5039 (  1676 PWs)   bands (ev):

    -1.9971  -0.0157  10.8371  10.8371  22.2952  22.2952  23.2592  29.5149

          k = 0.0000 0.2519 0.0000 (  1691 PWs)   bands (ev):

    -7.4884  11.9285  11.9285  12.4473  18.9937  21.6746  21.6746  27.7838

          k =-0.1260 0.3779-0.1260 (  1670 PWs)   bands (ev):

    -6.4585   8.5725  10.7443  11.6895  19.6783  23.3314  23.3408  27.0135

          k =-0.2519 0.5039-0.2519 (  1671 PWs)   bands (ev):

    -4.5857   4.4757  10.0815  10.4883  20.8645  23.9981  24.2577  27.4594

          k = 0.6299-0.3779 0.6299 (  1673 PWs)   bands (ev):

    -2.1142   0.8899   9.5037  10.0849  21.4695  23.7004  24.5729  29.1103

          k = 0.5039-0.2519 0.5039 (  1674 PWs)   bands (ev):

    -2.9496   1.9609   9.0518  10.7225  22.0894  23.0385  24.4362  29.3665

          k = 0.3779-0.1260 0.3779 (  1668 PWs)   bands (ev):

    -5.2995   5.8557   9.2611  11.8260  21.9824  22.6074  23.6649  28.3029

          k = 0.2519 0.0000 0.2519 (  1683 PWs)   bands (ev):

    -6.8987   9.7174  10.3658  12.9407  20.5777  21.9712  22.1287  28.1596

          k = 0.0000 0.5039 0.0000 (  1700 PWs)   bands (ev):

    -5.7281   9.3038   9.4576   9.4576  18.2793  24.1992  25.5571  25.5571

          k =-0.1260 0.6299-0.1260 (  1670 PWs)   bands (ev):

    -4.1496   6.1799   8.4052   8.7073  19.0213  23.2106  26.8847  26.9952

          k = 0.7558-0.2519 0.7558 (  1667 PWs)   bands (ev):

    -1.8486   2.7952   6.8579   8.6847  19.9148  25.3575  26.7958  27.5136

          k = 0.6299-0.1260 0.6299 (  1674 PWs)   bands (ev):

    -1.0865   1.9234   5.8233   9.3819  20.6913  25.7352  27.5022  28.8440

          k = 0.5039 0.0000 0.5039 (  1682 PWs)   bands (ev):

    -3.4672   4.9853   5.8959  10.6134  21.8263  23.9264  26.4003  28.1399

          k = 0.0000 0.7558 0.0000 (  1680 PWs)   bands (ev):

    -2.8747   5.1829   7.7925   7.7925  17.9717  20.5499  29.1882  29.1882

          k = 0.8818-0.1260 0.8818 (  1677 PWs)   bands (ev):

    -0.8456   3.0640   6.1233   7.6057  18.8039  20.8544  29.7341  30.0486

          k = 0.7558 0.0000 0.7558 (  1666 PWs)   bands (ev):

     0.7869   1.9338   4.0301   8.1824  19.5009  24.6837  28.4111  29.8176

          k = 0.0000-1.0078 0.0000 (  1660 PWs)   bands (ev):

     0.8930   0.8930   7.2172   7.2172  18.5810  18.5810  30.9275  30.9275

          k =-0.2519 0.5039 0.0000 (  1668 PWs)   bands (ev):

    -5.1531   7.1964   8.0562  10.7722  20.4375  23.9712  25.5606  25.8434

          k = 0.6299-0.3779 0.8818 (  1673 PWs)   bands (ev):

    -3.0531   3.7483   7.3286   9.5172  21.8191  23.5707  26.5852  27.3404

          k = 0.5039-0.2519 0.7558 (  1676 PWs)   bands (ev):

    -0.9712   1.0608   7.3234   8.8693  22.0619  23.5144  27.2561  28.9048

          k = 0.7558-0.2519 1.0078 (  1662 PWs)   bands (ev):

    -2.3424   4.7569   6.5136   7.5662  20.1907  22.4248  27.1025  29.2099

          k = 0.6299-0.1260 0.8818 (  1671 PWs)   bands (ev):

    -0.0285   2.4838   5.0689   7.1473  21.3686  24.7491  26.6988  29.0674

          k = 0.5039 0.0000 0.7558 (  1665 PWs)   bands (ev):

    -0.8603   3.2965   4.5618   8.0659  22.1910  24.7062  27.2502  28.6702

          k =-0.2519-1.0078 0.0000 (  1674 PWs)   bands (ev):

     1.2668   1.2668   6.1548   6.1548  20.7214  20.7214  29.6804  29.6804

          k =-0.5039-1.0078 0.0000 (  1648 PWs)   bands (ev):

     1.7925   1.7925   5.0645   5.0645  24.3823  24.3823  26.5340  26.5340

     highest occupied, lowest unoccupied level (ev):    13.7159   17.9717

!    total energy              =     -22.89069364 Ry
     Harris-Foulkes estimate   =     -22.89069364 Ry
     estimated scf accuracy    <          7.6E-18 Ry

     The total energy is the sum of the following terms:

     one-electron contribution =       8.27400458 Ry
     hartree contribution      =       1.88559242 Ry
     xc contribution           =      -7.13570899 Ry
     ewald contribution        =     -25.91458165 Ry

     convergence has been achieved in   9 iterations

     Forces acting on atoms (cartesian axes, Ry/au):

     atom    1 type  1   force =    -0.00000000   -0.00000000    0.00000000
     atom    2 type  1   force =     0.00000000    0.00000000   -0.00000000

     Total force =     0.000000     Total SCF correction =     0.000000


     Computing stress (Cartesian axis) and pressure

          total   stress  (Ry/bohr**3)                   (kbar)     P=    0.08
   0.00000053   0.00000000   0.00000000          0.08      0.00      0.00
   0.00000000   0.00000053  -0.00000000          0.00      0.08     -0.00
  -0.00000000  -0.00000000   0.00000053         -0.00     -0.00      0.08


     bfgs converged in   4 scf cycles and   2 bfgs steps
     (criteria: energy <  1.0E-04 Ry, force <  1.0E-03Ry/Bohr, cell <  5.0E-01kbar)

     End of BFGS Geometry Optimization

     Final enthalpy =     -22.8906936420 Ry
Begin final coordinates
     new unit-cell volume =     73.57824 a.u.^3 (    10.90317 Ang^3 )
     density =      3.65852 g/cm^3

CELL_PARAMETERS (alat=  6.70342551)
  -0.496146219  -0.000000000   0.496146219
  -0.000000000   0.496146219   0.496146219
  -0.496146219   0.496146219   0.000000000

ATOMIC_POSITIONS (crystal)
C        0.000000000   0.000000000  -0.000000000
C        0.250000000   0.250000000   0.250000000
End final coordinates



     A final scf calculation at the relaxed structure.
     The G-vectors are recalculated for the final unit cell
     Results may differ from those at the preceding step.
 
     Parallelization info
     --------------------
     sticks:   dense  smooth     PW     G-vecs:    dense   smooth      PW
     Min          18      18      5                  327      327      54
     Max          19      19      6                  330      330      59
     Sum         745     745    223                13107    13107    2229
 


     bravais-lattice index     =            2
     lattice parameter (alat)  =       6.7034  a.u.
     unit-cell volume          =      73.5782 (a.u.)^3
     number of atoms/cell      =            2
     number of atomic types    =            1
     number of electrons       =         8.00
     number of Kohn-Sham states=            8
     kinetic-energy cutoff     =     120.0000  Ry
     charge density cutoff     =     480.0000  Ry
     convergence threshold     =      1.0E-17
     mixing beta               =       0.7000
     number of iterations used =            8  local-TF  mixing
     Exchange-correlation      = PZ ( 1  1  0  0 0 0)

     celldm(1)=   6.703426  celldm(2)=   0.000000  celldm(3)=   0.000000
     celldm(4)=   0.000000  celldm(5)=   0.000000  celldm(6)=   0.000000

     crystal axes: (cart. coord. in units of alat)
               a(1) = (  -0.496146  -0.000000   0.496146 )  
               a(2) = (  -0.000000   0.496146   0.496146 )  
               a(3) = (  -0.496146   0.496146   0.000000 )  

     reciprocal axes: (cart. coord. in units 2 pi/alat)
               b(1) = ( -1.007767 -1.007767  1.007767 )  
               b(2) = (  1.007767  1.007767  1.007767 )  
               b(3) = ( -1.007767  1.007767 -1.007767 )  


     PseudoPot. # 1 for  C read from file:
     ../C.pz-mt.fhi.UPF
     MD5 check sum: b7c38bc33a0cf75f44be89b84470f298
     Pseudo is Norm-conserving, Zval =  4.0
     Generated using FHI98PP, converted with fhi2upf.x v.5.0.2
     Using radial grid of  461 points,  2 beta functions with: 
                l(1) =   0
                l(2) =   1

     atomic species   valence    mass     pseudopotential
        C              4.00    12.01100      C( 1.00)

     48 Sym. Ops., with inversion, found (24 have fractional translation)



   Cartesian axes

     site n.     atom                  positions (alat units)
         1           C   tau(   1) = (   0.0000000  -0.0000000   0.0000000  )
         2           C   tau(   2) = (  -0.2480731   0.2480731   0.2480731  )

     number of k points=    29
                       cart. coord. in units 2pi/alat
        k(    1) = (   0.0000000   0.0000000   0.0000000), wk =   0.0039062
        k(    2) = (  -0.1259709   0.1259709  -0.1259709), wk =   0.0312500
        k(    3) = (  -0.2519419   0.2519419  -0.2519419), wk =   0.0312500
        k(    4) = (  -0.3779128   0.3779128  -0.3779128), wk =   0.0312500
        k(    5) = (   0.5038837  -0.5038837   0.5038837), wk =   0.0156250
        k(    6) = (   0.0000000   0.2519419   0.0000000), wk =   0.0234375
        k(    7) = (  -0.1259709   0.3779128  -0.1259709), wk =   0.0937500
        k(    8) = (  -0.2519419   0.5038837  -0.2519419), wk =   0.0937500
        k(    9) = (   0.6298546  -0.3779128   0.6298546), wk =   0.0937500
        k(   10) = (   0.5038837  -0.2519419   0.5038837), wk =   0.0937500
        k(   11) = (   0.3779128  -0.1259709   0.3779128), wk =   0.0937500
        k(   12) = (   0.2519419   0.0000000   0.2519419), wk =   0.0468750
        k(   13) = (   0.0000000   0.5038837   0.0000000), wk =   0.0234375
        k(   14) = (  -0.1259709   0.6298546  -0.1259709), wk =   0.0937500
        k(   15) = (   0.7558256  -0.2519419   0.7558256), wk =   0.0937500
        k(   16) = (   0.6298546  -0.1259709   0.6298546), wk =   0.0937500
        k(   17) = (   0.5038837   0.0000000   0.5038837), wk =   0.0468750
        k(   18) = (   0.0000000   0.7558256   0.0000000), wk =   0.0234375
        k(   19) = (   0.8817965  -0.1259709   0.8817965), wk =   0.0937500
        k(   20) = (   0.7558256   0.0000000   0.7558256), wk =   0.0468750
        k(   21) = (   0.0000000  -1.0077674   0.0000000), wk =   0.0117188
        k(   22) = (  -0.2519419   0.5038837   0.0000000), wk =   0.0937500
        k(   23) = (   0.6298546  -0.3779128   0.8817965), wk =   0.1875000
        k(   24) = (   0.5038837  -0.2519419   0.7558256), wk =   0.0937500
        k(   25) = (   0.7558256  -0.2519419   1.0077674), wk =   0.0937500
        k(   26) = (   0.6298546  -0.1259709   0.8817965), wk =   0.1875000
        k(   27) = (   0.5038837   0.0000000   0.7558256), wk =   0.0937500
        k(   28) = (  -0.2519419  -1.0077674   0.0000000), wk =   0.0468750
        k(   29) = (  -0.5038837  -1.0077674   0.0000000), wk =   0.0234375

     Dense  grid:    13107 G-vectors     FFT dimensions: (  36,  36,  36)

     Estimated max dynamical RAM per process >       0.52MB

     Estimated total allocated dynamical RAM >      20.74MB

     Initial potential from superposition of free atoms

     starting charge    7.99993, renormalised to    8.00000
     Starting wfc are   18 randomized atomic wfcs

     Writing output data file c.save

     total cpu time spent up to now is       18.0 secs

     per-process dynamical memory:    13.9 Mb

     Self-consistent Calculation

     iteration #  1     ecut=   120.00 Ry     beta=0.70
     Davidson diagonalization with overlap
     ethr =  1.00E-06,  avg # of iterations =  5.6

     total cpu time spent up to now is       18.9 secs

     total energy              =     -22.89816161 Ry
     Harris-Foulkes estimate   =     -22.95131849 Ry
     estimated scf accuracy    <       0.13691971 Ry

     iteration #  2     ecut=   120.00 Ry     beta=0.70
     Davidson diagonalization with overlap
     ethr =  1.71E-03,  avg # of iterations =  1.3

     total cpu time spent up to now is       19.2 secs

     total energy              =     -22.88734492 Ry
     Harris-Foulkes estimate   =     -22.90240396 Ry
     estimated scf accuracy    <       0.02778072 Ry

     iteration #  3     ecut=   120.00 Ry     beta=0.70
     Davidson diagonalization with overlap
     ethr =  3.47E-04,  avg # of iterations =  2.1

     total cpu time spent up to now is       19.6 secs

     total energy              =     -22.89066079 Ry
     Harris-Foulkes estimate   =     -22.89061423 Ry
     estimated scf accuracy    <       0.00012960 Ry

     iteration #  4     ecut=   120.00 Ry     beta=0.70
     Davidson diagonalization with overlap
     ethr =  1.62E-06,  avg # of iterations =  2.1

     total cpu time spent up to now is       20.0 secs

     total energy              =     -22.89068898 Ry
     Harris-Foulkes estimate   =     -22.89069556 Ry
     estimated scf accuracy    <       0.00001112 Ry

     iteration #  5     ecut=   120.00 Ry     beta=0.70
     Davidson diagonalization with overlap
     ethr =  1.39E-07,  avg # of iterations =  2.0

     total cpu time spent up to now is       20.4 secs

     total energy              =     -22.89069020 Ry
     Harris-Foulkes estimate   =     -22.89069036 Ry
     estimated scf accuracy    <       0.00000037 Ry

     iteration #  6     ecut=   120.00 Ry     beta=0.70
     Davidson diagonalization with overlap
     ethr =  4.59E-09,  avg # of iterations =  2.0

     total cpu time spent up to now is       20.8 secs

     total energy              =     -22.89069081 Ry
     Harris-Foulkes estimate   =     -22.89069024 Ry
     estimated scf accuracy    <       0.00000001 Ry

     iteration #  7     ecut=   120.00 Ry     beta=0.70
     Davidson diagonalization with overlap
     ethr =  1.42E-10,  avg # of iterations =  2.7

     total cpu time spent up to now is       21.3 secs

     total energy              =     -22.89069081 Ry
     Harris-Foulkes estimate   =     -22.89069081 Ry
     estimated scf accuracy    <          1.9E-11 Ry

     iteration #  8     ecut=   120.00 Ry     beta=0.70
     Davidson diagonalization with overlap
     ethr =  2.38E-13,  avg # of iterations =  2.6

     total cpu time spent up to now is       21.8 secs

     total energy              =     -22.89069081 Ry
     Harris-Foulkes estimate   =     -22.89069081 Ry
     estimated scf accuracy    <          5.4E-12 Ry

     iteration #  9     ecut=   120.00 Ry     beta=0.70
     Davidson diagonalization with overlap
     ethr =  1.00E-13,  avg # of iterations =  1.7

     total cpu time spent up to now is       22.1 secs

     total energy              =     -22.89069081 Ry
     Harris-Foulkes estimate   =     -22.89069081 Ry
     estimated scf accuracy    <          3.1E-13 Ry

     iteration # 10     ecut=   120.00 Ry     beta=0.70
     Davidson diagonalization with overlap
     ethr =  1.00E-13,  avg # of iterations =  1.0

     total cpu time spent up to now is       22.4 secs

     total energy              =     -22.89069081 Ry
     Harris-Foulkes estimate   =     -22.89069081 Ry
     estimated scf accuracy    <          5.7E-15 Ry

     iteration # 11     ecut=   120.00 Ry     beta=0.70
     Davidson diagonalization with overlap
     ethr =  1.00E-13,  avg # of iterations =  1.0

     total cpu time spent up to now is       22.6 secs

     total energy              =     -22.89069081 Ry
     Harris-Foulkes estimate   =     -22.89069081 Ry
     estimated scf accuracy    <          6.7E-16 Ry

     iteration # 12     ecut=   120.00 Ry     beta=0.70
     Davidson diagonalization with overlap
     ethr =  1.00E-13,  avg # of iterations =  1.0

     total cpu time spent up to now is       22.9 secs

     total energy              =     -22.89069081 Ry
     Harris-Foulkes estimate   =     -22.89069081 Ry
     estimated scf accuracy    <          1.4E-17 Ry

     iteration # 13     ecut=   120.00 Ry     beta=0.70
     Davidson diagonalization with overlap
     ethr =  1.00E-13,  avg # of iterations =  1.0

     total cpu time spent up to now is       23.2 secs

     End of self-consistent calculation

          k = 0.0000 0.0000 0.0000 (  1639 PWs)   bands (ev):

    -8.0818  13.7159  13.7159  13.7159  19.3878  19.3878  19.3878  28.0197

          k =-0.1260 0.1260-0.1260 (  1624 PWs)   bands (ev):

    -7.6365  11.2736  13.0418  13.0418  20.2730  20.2730  20.7736  28.2622

          k =-0.2519 0.2519-0.2519 (  1636 PWs)   bands (ev):

    -6.3133   7.0401  11.9173  11.9173  21.6420  21.6420  22.2797  28.8725

          k =-0.3779 0.3779-0.3779 (  1634 PWs)   bands (ev):

    -4.1713   2.8692  11.1157  11.1157  22.2312  22.2312  23.0359  29.3878

          k = 0.5039-0.5039 0.5039 (  1622 PWs)   bands (ev):

    -1.9971  -0.0157  10.8371  10.8371  22.2952  22.2952  23.2592  29.5150

          k = 0.0000 0.2519 0.0000 (  1623 PWs)   bands (ev):

    -7.4884  11.9285  11.9285  12.4473  18.9937  21.6746  21.6746  27.7838

          k =-0.1260 0.3779-0.1260 (  1631 PWs)   bands (ev):

    -6.4585   8.5725  10.7443  11.6895  19.6783  23.3315  23.3408  27.0135

          k =-0.2519 0.5039-0.2519 (  1639 PWs)   bands (ev):

    -4.5857   4.4757  10.0815  10.4883  20.8645  23.9981  24.2577  27.4594

          k = 0.6299-0.3779 0.6299 (  1633 PWs)   bands (ev):

    -2.1142   0.8899   9.5037  10.0849  21.4695  23.7004  24.5729  29.1103

          k = 0.5039-0.2519 0.5039 (  1626 PWs)   bands (ev):

    -2.9496   1.9610   9.0518  10.7225  22.0894  23.0385  24.4362  29.3665

          k = 0.3779-0.1260 0.3779 (  1630 PWs)   bands (ev):

    -5.2995   5.8557   9.2611  11.8260  21.9824  22.6074  23.6649  28.3030

          k = 0.2519 0.0000 0.2519 (  1622 PWs)   bands (ev):

    -6.8987   9.7174  10.3658  12.9407  20.5777  21.9712  22.1287  28.1597

          k = 0.0000 0.5039 0.0000 (  1636 PWs)   bands (ev):

    -5.7281   9.3038   9.4576   9.4576  18.2793  24.1992  25.5571  25.5571

          k =-0.1260 0.6299-0.1260 (  1639 PWs)   bands (ev):

    -4.1496   6.1799   8.4052   8.7073  19.0213  23.2106  26.8847  26.9952

          k = 0.7558-0.2519 0.7558 (  1633 PWs)   bands (ev):

    -1.8486   2.7952   6.8579   8.6847  19.9148  25.3575  26.7958  27.5136

          k = 0.6299-0.1260 0.6299 (  1633 PWs)   bands (ev):

    -1.0865   1.9234   5.8233   9.3819  20.6913  25.7352  27.5022  28.8440

          k = 0.5039 0.0000 0.5039 (  1624 PWs)   bands (ev):

    -3.4672   4.9853   5.8959  10.6134  21.8263  23.9264  26.4003  28.1399

          k = 0.0000 0.7558 0.0000 (  1632 PWs)   bands (ev):

    -2.8747   5.1829   7.7925   7.7925  17.9717  20.5499  29.1882  29.1882

          k = 0.8818-0.1260 0.8818 (  1640 PWs)   bands (ev):

    -0.8456   3.0640   6.1233   7.6057  18.8039  20.8544  29.7341  30.0486

          k = 0.7558 0.0000 0.7558 (  1638 PWs)   bands (ev):

     0.7869   1.9338   4.0301   8.1824  19.5009  24.6837  28.4111  29.8176

          k = 0.0000-1.0078 0.0000 (  1660 PWs)   bands (ev):

     0.8930   0.8930   7.2172   7.2172  18.5810  18.5810  30.9275  30.9275

          k =-0.2519 0.5039 0.0000 (  1640 PWs)   bands (ev):

    -5.1531   7.1964   8.0562  10.7722  20.4375  23.9712  25.5606  25.8434

          k = 0.6299-0.3779 0.8818 (  1632 PWs)   bands (ev):

    -3.0531   3.7483   7.3286   9.5172  21.8191  23.5707  26.5852  27.3404

          k = 0.5039-0.2519 0.7558 (  1634 PWs)   bands (ev):

    -0.9712   1.0608   7.3234   8.8693  22.0619  23.5144  27.2561  28.9048

          k = 0.7558-0.2519 1.0078 (  1634 PWs)   bands (ev):

    -2.3424   4.7569   6.5136   7.5662  20.1907  22.4248  27.1025  29.2099

          k = 0.6299-0.1260 0.8818 (  1636 PWs)   bands (ev):

    -0.0285   2.4838   5.0689   7.1473  21.3686  24.7492  26.6988  29.0674

          k = 0.5039 0.0000 0.7558 (  1639 PWs)   bands (ev):

    -0.8603   3.2965   4.5618   8.0659  22.1910  24.7062  27.2502  28.6702

          k =-0.2519-1.0078 0.0000 (  1636 PWs)   bands (ev):

     1.2668   1.2668   6.1548   6.1548  20.7214  20.7214  29.6804  29.6804

          k =-0.5039-1.0078 0.0000 (  1628 PWs)   bands (ev):

     1.7925   1.7925   5.0645   5.0645  24.3823  24.3823  26.5340  26.5340

     highest occupied, lowest unoccupied level (ev):    13.7159   17.9717

!    total energy              =     -22.89069081 Ry
     Harris-Foulkes estimate   =     -22.89069081 Ry
     estimated scf accuracy    <          4.6E-20 Ry

     The total energy is the sum of the following terms:

     one-electron contribution =       8.27400767 Ry
     hartree contribution      =       1.88559125 Ry
     xc contribution           =      -7.13570808 Ry
     ewald contribution        =     -25.91458165 Ry

     convergence has been achieved in  13 iterations

     Forces acting on atoms (cartesian axes, Ry/au):

     atom    1 type  1   force =    -0.00000000    0.00000000   -0.00000000
     atom    2 type  1   force =     0.00000000   -0.00000000    0.00000000

     Total force =     0.000000     Total SCF correction =     0.000000


     Computing stress (Cartesian axis) and pressure

          total   stress  (Ry/bohr**3)                   (kbar)     P=    0.02
   0.00000010   0.00000000  -0.00000000          0.02      0.00     -0.00
   0.00000000   0.00000010  -0.00000000          0.00      0.02     -0.00
   0.00000000   0.00000000   0.00000010          0.00      0.00      0.02


     Writing output data file c.save
 
     init_run     :      0.42s CPU      0.47s WALL (       2 calls)
     electrons    :     21.68s CPU     22.19s WALL (       5 calls)
     update_pot   :      0.03s CPU      0.03s WALL (       3 calls)
     forces       :      0.04s CPU      0.04s WALL (       5 calls)
     stress       :      0.05s CPU      0.06s WALL (       5 calls)

     Called by init_run:
     wfcinit      :      0.39s CPU      0.40s WALL (       2 calls)
     potinit      :      0.01s CPU      0.02s WALL (       2 calls)

     Called by electrons:
     c_bands      :     20.71s CPU     21.09s WALL (      56 calls)
     sum_band     :      0.80s CPU      0.83s WALL (      56 calls)
     v_of_rho     :      0.02s CPU      0.02s WALL (      60 calls)
     mix_rho      :      0.11s CPU      0.12s WALL (      56 calls)

     Called by c_bands:
     init_us_2    :      0.04s CPU      0.05s WALL (    3596 calls)
     cegterg      :     20.56s CPU     20.93s WALL (    1624 calls)

     Called by sum_band:

     Called by *egterg:
     h_psi        :      4.29s CPU      4.44s WALL (    4870 calls)
     g_psi        :      0.01s CPU      0.01s WALL (    3188 calls)
     cdiaghg      :     11.60s CPU     11.71s WALL (    4696 calls)

     Called by h_psi:
     h_psi:pot    :      4.28s CPU      4.42s WALL (    4870 calls)
     h_psi:calbec :      0.20s CPU      0.21s WALL (    4870 calls)
     vloc_psi     :      4.00s CPU      4.13s WALL (    4870 calls)
     add_vuspsi   :      0.05s CPU      0.05s WALL (    4870 calls)

     General routines
     calbec       :      0.22s CPU      0.23s WALL (    5595 calls)
     fft          :      0.03s CPU      0.03s WALL (     265 calls)
     ffts         :      0.05s CPU      0.05s WALL (     602 calls)
     fftw         :      4.42s CPU      4.57s WALL (   81330 calls)
 
     Parallel routines
     fft_scatter  :      3.46s CPU      3.60s WALL (   82197 calls)
 
     PWSCF        :    22.58s CPU        23.88s WALL

 
   This run was terminated on:  10:56:40   8Dec2020            

=------------------------------------------------------------------------------=
   JOB DONE.
=------------------------------------------------------------------------------=
