
     Program PWSCF v.6.1 (svn rev. 13369) starts on  4Jan2021 at 17:17:55 

     This program is part of the open-source Quantum ESPRESSO suite
     for quantum simulation of materials; please cite
         "P. Giannozzi et al., J. Phys.:Condens. Matter 21 395502 (2009);
          URL http://www.quantum-espresso.org", 
     in publications or presentations arising from this work. More details at
     http://www.quantum-espresso.org/quote

     Parallel version (MPI & OpenMP), running on      40 processor cores
     Number of MPI processes:                40
     Threads/MPI process:                     1
     R & G space division:  proc/nbgrp/npool/nimage =      40
     Waiting for input...
     Reading input from standard input

     Current dimensions of program PWSCF are:
     Max number of different atomic species (ntypx) = 10
     Max number of k-points (npk) =  40000
     Max angular momentum in pseudopotentials (lmaxx) =  3

     IMPORTANT: XC functional enforced from input :
     Exchange-correlation      = PZ ( 1  1  0  0 0 0)
     Any further DFT definition will be discarded
     Please, verify this is what you really want

               file C.pz-mt.fhi.UPF: wavefunction(s)  3d renormalized

     Subspace diagonalization in iterative solution of the eigenvalue problem:
     one sub-group per band group will be used
     scalapack distributed-memory algorithm (size of sub-group:  4*  4 procs)

 
     Parallelization info
     --------------------
     sticks:   dense  smooth     PW     G-vecs:    dense   smooth      PW
     Min           9       9      3                  116      116      21
     Max          10      10      4                  119      119      24
     Sum         367     367    121                 4693     4693     893
 


     bravais-lattice index     =            2
     lattice parameter (alat)  =       6.7034  a.u.
     unit-cell volume          =      75.3061 (a.u.)^3
     number of atoms/cell      =            2
     number of atomic types    =            1
     number of electrons       =         8.00
     number of Kohn-Sham states=            4
     kinetic-energy cutoff     =      60.0000  Ry
     charge density cutoff     =     240.0000  Ry
     convergence threshold     =      1.0E-20
     mixing beta               =       0.7000
     number of iterations used =            8  plain     mixing
     Exchange-correlation      = PZ ( 1  1  0  0 0 0)

     celldm(1)=   6.703426  celldm(2)=   0.000000  celldm(3)=   0.000000
     celldm(4)=   0.000000  celldm(5)=   0.000000  celldm(6)=   0.000000

     crystal axes: (cart. coord. in units of alat)
               a(1) = (  -0.500000   0.000000   0.500000 )  
               a(2) = (   0.000000   0.500000   0.500000 )  
               a(3) = (  -0.500000   0.500000   0.000000 )  

     reciprocal axes: (cart. coord. in units 2 pi/alat)
               b(1) = ( -1.000000 -1.000000  1.000000 )  
               b(2) = (  1.000000  1.000000  1.000000 )  
               b(3) = ( -1.000000  1.000000 -1.000000 )  


     PseudoPot. # 1 for  C read from file:
     ../../C.pz-mt.fhi.UPF
     MD5 check sum: b7c38bc33a0cf75f44be89b84470f298
     Pseudo is Norm-conserving, Zval =  4.0
     Generated using FHI98PP, converted with fhi2upf.x v.5.0.2
     Using radial grid of  461 points,  2 beta functions with: 
                l(1) =   0
                l(2) =   1

     atomic species   valence    mass     pseudopotential
        C              4.00    12.01100      C( 1.00)

     48 Sym. Ops., with inversion, found (24 have fractional translation)



   Cartesian axes

     site n.     atom                  positions (alat units)
         1           C   tau(   1) = (   0.0000000   0.0000000   0.0000000  )
         2           C   tau(   2) = (  -0.2500000   0.2500000   0.2500000  )

     number of k points=    29
                       cart. coord. in units 2pi/alat
        k(    1) = (   0.0000000   0.0000000   0.0000000), wk =   0.0039062
        k(    2) = (  -0.1250000   0.1250000  -0.1250000), wk =   0.0312500
        k(    3) = (  -0.2500000   0.2500000  -0.2500000), wk =   0.0312500
        k(    4) = (  -0.3750000   0.3750000  -0.3750000), wk =   0.0312500
        k(    5) = (   0.5000000  -0.5000000   0.5000000), wk =   0.0156250
        k(    6) = (   0.0000000   0.2500000   0.0000000), wk =   0.0234375
        k(    7) = (  -0.1250000   0.3750000  -0.1250000), wk =   0.0937500
        k(    8) = (  -0.2500000   0.5000000  -0.2500000), wk =   0.0937500
        k(    9) = (   0.6250000  -0.3750000   0.6250000), wk =   0.0937500
        k(   10) = (   0.5000000  -0.2500000   0.5000000), wk =   0.0937500
        k(   11) = (   0.3750000  -0.1250000   0.3750000), wk =   0.0937500
        k(   12) = (   0.2500000   0.0000000   0.2500000), wk =   0.0468750
        k(   13) = (   0.0000000   0.5000000   0.0000000), wk =   0.0234375
        k(   14) = (  -0.1250000   0.6250000  -0.1250000), wk =   0.0937500
        k(   15) = (   0.7500000  -0.2500000   0.7500000), wk =   0.0937500
        k(   16) = (   0.6250000  -0.1250000   0.6250000), wk =   0.0937500
        k(   17) = (   0.5000000   0.0000000   0.5000000), wk =   0.0468750
        k(   18) = (   0.0000000   0.7500000   0.0000000), wk =   0.0234375
        k(   19) = (   0.8750000  -0.1250000   0.8750000), wk =   0.0937500
        k(   20) = (   0.7500000   0.0000000   0.7500000), wk =   0.0468750
        k(   21) = (   0.0000000  -1.0000000   0.0000000), wk =   0.0117188
        k(   22) = (  -0.2500000   0.5000000   0.0000000), wk =   0.0937500
        k(   23) = (   0.6250000  -0.3750000   0.8750000), wk =   0.1875000
        k(   24) = (   0.5000000  -0.2500000   0.7500000), wk =   0.0937500
        k(   25) = (   0.7500000  -0.2500000   1.0000000), wk =   0.0937500
        k(   26) = (   0.6250000  -0.1250000   0.8750000), wk =   0.1875000
        k(   27) = (   0.5000000   0.0000000   0.7500000), wk =   0.0937500
        k(   28) = (  -0.2500000  -1.0000000   0.0000000), wk =   0.0468750
        k(   29) = (  -0.5000000  -1.0000000   0.0000000), wk =   0.0234375

     Dense  grid:     4693 G-vectors     FFT dimensions: (  24,  24,  24)

     Estimated max dynamical RAM per process >       0.16MB

     Estimated total allocated dynamical RAM >       6.44MB
     Message from routine sym_rho_init:
     some processors have no G-vectors for symmetrization
     Message from routine sym_rho_init:
     some processors have no G-vectors for symmetrization
     Message from routine sym_rho_init:
     some processors have no G-vectors for symmetrization
     Message from routine sym_rho_init:
     some processors have no G-vectors for symmetrization
     Message from routine sym_rho_init:
     some processors have no G-vectors for symmetrization
     Message from routine sym_rho_init:
     some processors have no G-vectors for symmetrization
     Message from routine sym_rho_init:
     some processors have no G-vectors for symmetrization

     Initial potential from superposition of free atoms

     starting charge    7.99993, renormalised to    8.00000
     Starting wfc are   18 randomized atomic wfcs

     total cpu time spent up to now is        1.7 secs

     per-process dynamical memory:    12.8 Mb

     Self-consistent Calculation

     iteration #  1     ecut=    60.00 Ry     beta=0.70
     Davidson diagonalization with overlap
     ethr =  1.00E-02,  avg # of iterations =  2.0

     total cpu time spent up to now is        1.9 secs

     total energy              =     -22.87593196 Ry
     Harris-Foulkes estimate   =     -22.94414989 Ry
     estimated scf accuracy    <       0.13002866 Ry

     iteration #  2     ecut=    60.00 Ry     beta=0.70
     Davidson diagonalization with overlap
     ethr =  1.63E-03,  avg # of iterations =  2.0

     total cpu time spent up to now is        2.1 secs

     total energy              =     -22.88791563 Ry
     Harris-Foulkes estimate   =     -22.88843831 Ry
     estimated scf accuracy    <       0.00191767 Ry

     iteration #  3     ecut=    60.00 Ry     beta=0.70
     Davidson diagonalization with overlap
     ethr =  2.40E-05,  avg # of iterations =  2.1

     total cpu time spent up to now is        2.2 secs

     total energy              =     -22.88825619 Ry
     Harris-Foulkes estimate   =     -22.88826563 Ry
     estimated scf accuracy    <       0.00006855 Ry

     iteration #  4     ecut=    60.00 Ry     beta=0.70
     Davidson diagonalization with overlap
     ethr =  8.57E-07,  avg # of iterations =  2.6

     total cpu time spent up to now is        2.5 secs

     total energy              =     -22.88827517 Ry
     Harris-Foulkes estimate   =     -22.88827634 Ry
     estimated scf accuracy    <       0.00000207 Ry

     iteration #  5     ecut=    60.00 Ry     beta=0.70
     Davidson diagonalization with overlap
     ethr =  2.59E-08,  avg # of iterations =  2.7

     total cpu time spent up to now is        2.7 secs

     total energy              =     -22.88827602 Ry
     Harris-Foulkes estimate   =     -22.88827603 Ry
     estimated scf accuracy    <       0.00000002 Ry

     iteration #  6     ecut=    60.00 Ry     beta=0.70
     Davidson diagonalization with overlap
     ethr =  2.51E-10,  avg # of iterations =  2.7

     total cpu time spent up to now is        2.9 secs

     total energy              =     -22.88827604 Ry
     Harris-Foulkes estimate   =     -22.88827604 Ry
     estimated scf accuracy    <          5.6E-10 Ry

     iteration #  7     ecut=    60.00 Ry     beta=0.70
     Davidson diagonalization with overlap
     ethr =  6.99E-12,  avg # of iterations =  2.3

     total cpu time spent up to now is        3.1 secs

     total energy              =     -22.88827604 Ry
     Harris-Foulkes estimate   =     -22.88827604 Ry
     estimated scf accuracy    <          1.1E-12 Ry

     iteration #  8     ecut=    60.00 Ry     beta=0.70
     Davidson diagonalization with overlap
     ethr =  1.00E-13,  avg # of iterations =  2.7

     total cpu time spent up to now is        3.3 secs

     total energy              =     -22.88827604 Ry
     Harris-Foulkes estimate   =     -22.88827604 Ry
     estimated scf accuracy    <          1.4E-13 Ry

     iteration #  9     ecut=    60.00 Ry     beta=0.70
     Davidson diagonalization with overlap
     ethr =  1.00E-13,  avg # of iterations =  1.0

     total cpu time spent up to now is        3.4 secs

     total energy              =     -22.88827604 Ry
     Harris-Foulkes estimate   =     -22.88827604 Ry
     estimated scf accuracy    <          5.5E-15 Ry

     iteration # 10     ecut=    60.00 Ry     beta=0.70
     Davidson diagonalization with overlap
     ethr =  1.00E-13,  avg # of iterations =  1.0

     total cpu time spent up to now is        3.5 secs

     total energy              =     -22.88827604 Ry
     Harris-Foulkes estimate   =     -22.88827604 Ry
     estimated scf accuracy    <          1.9E-17 Ry

     iteration # 11     ecut=    60.00 Ry     beta=0.70
     Davidson diagonalization with overlap
     ethr =  1.00E-13,  avg # of iterations =  1.0

     total cpu time spent up to now is        3.7 secs

     total energy              =     -22.88827604 Ry
     Harris-Foulkes estimate   =     -22.88827604 Ry
     estimated scf accuracy    <          1.0E-16 Ry

     iteration # 12     ecut=    60.00 Ry     beta=0.70
     Davidson diagonalization with overlap
     ethr =  1.00E-13,  avg # of iterations =  1.0

     total cpu time spent up to now is        3.8 secs

     total energy              =     -22.88827604 Ry
     Harris-Foulkes estimate   =     -22.88827604 Ry
     estimated scf accuracy    <          1.2E-18 Ry

     iteration # 13     ecut=    60.00 Ry     beta=0.70
     Davidson diagonalization with overlap
     ethr =  1.00E-13,  avg # of iterations =  1.0

     total cpu time spent up to now is        3.9 secs

     total energy              =     -22.88827604 Ry
     Harris-Foulkes estimate   =     -22.88827604 Ry
     estimated scf accuracy    <          1.4E-19 Ry

     iteration # 14     ecut=    60.00 Ry     beta=0.70
     Davidson diagonalization with overlap
     ethr =  1.00E-13,  avg # of iterations =  1.0

     total cpu time spent up to now is        4.0 secs

     total energy              =     -22.88827604 Ry
     Harris-Foulkes estimate   =     -22.88827604 Ry
     estimated scf accuracy    <          1.5E-18 Ry

     iteration # 15     ecut=    60.00 Ry     beta=0.70
     Davidson diagonalization with overlap
     ethr =  1.00E-13,  avg # of iterations =  1.0

     total cpu time spent up to now is        4.1 secs

     total energy              =     -22.88827604 Ry
     Harris-Foulkes estimate   =     -22.88827604 Ry
     estimated scf accuracy    <          2.4E-20 Ry

     iteration # 16     ecut=    60.00 Ry     beta=0.70
     Davidson diagonalization with overlap
     ethr =  1.00E-13,  avg # of iterations =  1.0

     total cpu time spent up to now is        4.2 secs

     total energy              =     -22.88827604 Ry
     Harris-Foulkes estimate   =     -22.88827604 Ry
     estimated scf accuracy    <          1.1E-19 Ry

     iteration # 17     ecut=    60.00 Ry     beta=0.70
     Davidson diagonalization with overlap
     ethr =  1.00E-13,  avg # of iterations =  1.0

     total cpu time spent up to now is        4.4 secs

     total energy              =     -22.88827604 Ry
     Harris-Foulkes estimate   =     -22.88827604 Ry
     estimated scf accuracy    <          2.1E-20 Ry

     iteration # 18     ecut=    60.00 Ry     beta=0.70
     Davidson diagonalization with overlap
     ethr =  1.00E-13,  avg # of iterations =  1.0

     total cpu time spent up to now is        4.5 secs

     total energy              =     -22.88827604 Ry
     Harris-Foulkes estimate   =     -22.88827604 Ry
     estimated scf accuracy    <          1.1E-20 Ry

     iteration # 19     ecut=    60.00 Ry     beta=0.70
     Davidson diagonalization with overlap
     ethr =  1.00E-13,  avg # of iterations =  1.0

     total cpu time spent up to now is        4.6 secs

     End of self-consistent calculation

          k = 0.0000 0.0000 0.0000 (   609 PWs)   bands (ev):

    -8.1892  13.2972  13.2972  13.2972

          k =-0.1250 0.1250-0.1250 (   576 PWs)   bands (ev):

    -7.7506  10.8977  12.6394  12.6394

          k =-0.2500 0.2500-0.2500 (   589 PWs)   bands (ev):

    -6.4489   6.7304  11.5383  11.5383

          k =-0.3750 0.3750-0.3750 (   598 PWs)   bands (ev):

    -4.3449   2.6273  10.7517  10.7517

          k = 0.5000-0.5000 0.5000 (   580 PWs)   bands (ev):

    -2.2406  -0.1763  10.4780  10.4780

          k = 0.0000 0.2500 0.0000 (   581 PWs)   bands (ev):

    -7.6049  11.5541  11.5541  12.0292

          k =-0.1250 0.3750-0.1250 (   582 PWs)   bands (ev):

    -6.5914   8.2376  10.3944  11.2963

          k =-0.2500 0.5000-0.2500 (   588 PWs)   bands (ev):

    -4.7501   4.2047   9.7432  10.1203

          k = 0.6250-0.3750 0.6250 (   590 PWs)   bands (ev):

    -2.3384   0.6952   9.1572   9.7444

          k = 0.5000-0.2500 0.5000 (   589 PWs)   bands (ev):

    -3.1480   1.7370   8.7172  10.3672

          k = 0.3750-0.1250 0.3750 (   590 PWs)   bands (ev):

    -5.4517   5.5621   8.9267  11.4465

          k = 0.2500 0.0000 0.2500 (   582 PWs)   bands (ev):

    -7.0246   9.3567  10.0218  12.5370

          k = 0.0000 0.5000 0.0000 (   592 PWs)   bands (ev):

    -5.8726   8.9122   9.1351   9.1351

          k =-0.1250 0.6250-0.1250 (   595 PWs)   bands (ev):

    -4.3202   5.8617   8.0789   8.3991

          k = 0.7500-0.2500 0.7500 (   598 PWs)   bands (ev):

    -2.0645   2.5442   6.5576   8.3756

          k = 0.6250-0.1250 0.6250 (   587 PWs)   bands (ev):

    -1.3272   1.7011   5.5435   9.0572

          k = 0.5000 0.0000 0.5000 (   590 PWs)   bands (ev):

    -3.6514   4.6825   5.6337  10.2616

          k = 0.0000 0.7500 0.0000 (   596 PWs)   bands (ev):

    -3.0657   4.8536   7.5027   7.5027

          k = 0.8750-0.1250 0.8750 (   598 PWs)   bands (ev):

    -1.0729   2.7662   5.8706   7.3190

          k = 0.7500 0.0000 0.7500 (   594 PWs)   bands (ev):

     0.5018   1.6667   3.8333   7.8835

          k = 0.0000-1.0000 0.0000 (   588 PWs)   bands (ev):

     0.6383   0.6383   6.9384   6.9384

          k =-0.2500 0.5000 0.0000 (   592 PWs)   bands (ev):

    -5.3073   6.8637   7.7558  10.4084

          k = 0.6250-0.3750 0.8750 (   588 PWs)   bands (ev):

    -3.2449   3.4841   7.0211   9.1870

          k = 0.5000-0.2500 0.7500 (   592 PWs)   bands (ev):

    -1.2280   0.8719   7.0071   8.5593

          k = 0.7500-0.2500 1.0000 (   588 PWs)   bands (ev):

    -2.5442   4.4322   6.2445   7.2861

          k = 0.6250-0.1250 0.8750 (   594 PWs)   bands (ev):

    -0.2849   2.2169   4.8208   6.8748

          k = 0.5000 0.0000 0.7500 (   586 PWs)   bands (ev):

    -1.0974   3.0062   4.3344   7.7701

          k =-0.2500-1.0000 0.0000 (   598 PWs)   bands (ev):

     0.9982   0.9982   5.9007   5.9007

          k =-0.5000-1.0000 0.0000 (   604 PWs)   bands (ev):

     1.4973   1.4973   4.8457   4.8457

     highest occupied level (ev):    13.2972

!    total energy              =     -22.88827604 Ry
     Harris-Foulkes estimate   =     -22.88827604 Ry
     estimated scf accuracy    <          1.8E-21 Ry

     The total energy is the sum of the following terms:

     one-electron contribution =       8.01546726 Ry
     hartree contribution      =       1.90755933 Ry
     xc contribution           =      -7.09645919 Ry
     ewald contribution        =     -25.71484343 Ry

     convergence has been achieved in  19 iterations

     Writing output data file c.save
 
     init_run     :      0.31s CPU      0.97s WALL (       1 calls)
     electrons    :      2.80s CPU      2.95s WALL (       1 calls)

     Called by init_run:
     wfcinit      :      0.25s CPU      0.42s WALL (       1 calls)
     potinit      :      0.02s CPU      0.08s WALL (       1 calls)

     Called by electrons:
     c_bands      :      2.71s CPU      2.78s WALL (      19 calls)
     sum_band     :      0.08s CPU      0.09s WALL (      19 calls)
     v_of_rho     :      0.01s CPU      0.05s WALL (      20 calls)
     mix_rho      :      0.01s CPU      0.03s WALL (      19 calls)

     Called by c_bands:
     init_us_2    :      0.01s CPU      0.01s WALL (    1131 calls)
     cegterg      :      2.67s CPU      2.73s WALL (     551 calls)

     Called by sum_band:

     Called by *egterg:
     h_psi        :      0.41s CPU      0.43s WALL (    1452 calls)
     g_psi        :      0.00s CPU      0.00s WALL (     872 calls)
     cdiaghg      :      1.50s CPU      1.65s WALL (    1423 calls)

     Called by h_psi:
     h_psi:pot    :      0.40s CPU      0.43s WALL (    1452 calls)
     h_psi:calbec :      0.03s CPU      0.04s WALL (    1452 calls)
     vloc_psi     :      0.35s CPU      0.36s WALL (    1452 calls)
     add_vuspsi   :      0.01s CPU      0.01s WALL (    1452 calls)

     General routines
     calbec       :      0.03s CPU      0.03s WALL (    1452 calls)
     fft          :      0.01s CPU      0.32s WALL (      79 calls)
     fftw         :      0.39s CPU      0.40s WALL (   13662 calls)
 
     Parallel routines
     fft_scatter  :      0.31s CPU      0.33s WALL (   13741 calls)
 
     PWSCF        :     3.27s CPU         5.02s WALL

 
   This run was terminated on:  17:18: 0   4Jan2021            

=------------------------------------------------------------------------------=
   JOB DONE.
=------------------------------------------------------------------------------=
