
     Program PWSCF v.6.1 (svn rev. 13369) starts on 13Jan2021 at 10:54:54 

     This program is part of the open-source Quantum ESPRESSO suite
     for quantum simulation of materials; please cite
         "P. Giannozzi et al., J. Phys.:Condens. Matter 21 395502 (2009);
          URL http://www.quantum-espresso.org", 
     in publications or presentations arising from this work. More details at
     http://www.quantum-espresso.org/quote

     Parallel version (MPI & OpenMP), running on      40 processor cores
     Number of MPI processes:                40
     Threads/MPI process:                     1
     R & G space division:  proc/nbgrp/npool/nimage =      40
     Waiting for input...
     Reading input from standard input
Warning: card     ! THIS WAS THE PSEUDOPOTENTIAL USED IN PRL 105, 265501 (2010) ignored
Warning: card     ! AND COMPUTATIONAL MATERIALS SCIENCE 83 (2014) 341–348 ignored

     Current dimensions of program PWSCF are:
     Max number of different atomic species (ntypx) = 10
     Max number of k-points (npk) =  40000
     Max angular momentum in pseudopotentials (lmaxx) =  3

     Atomic positions and unit cell read from directory:
     ./c.save/
 

     IMPORTANT: XC functional enforced from input :
     Exchange-correlation      = PZ ( 1  1  0  0 0 0)
     Any further DFT definition will be discarded
     Please, verify this is what you really want

               file C.pz-mt.fhi.UPF: wavefunction(s)  3d renormalized

     Subspace diagonalization in iterative solution of the eigenvalue problem:
     one sub-group per band group will be used
     scalapack distributed-memory algorithm (size of sub-group:  4*  4 procs)

 
     Parallelization info
     --------------------
     sticks:   dense  smooth     PW     G-vecs:    dense   smooth      PW
     Min           9       9      3                  122      122      23
     Max          10      10      4                  125      125      27
     Sum         379     379    121                 4909     4909     941
 


     bravais-lattice index     =            2
     lattice parameter (alat)  =       6.7704  a.u.
     unit-cell volume          =      77.5849 (a.u.)^3
     number of atoms/cell      =            2
     number of atomic types    =            1
     number of electrons       =         8.00
     number of Kohn-Sham states=            8
     kinetic-energy cutoff     =      60.0000  Ry
     charge density cutoff     =     240.0000  Ry
     Exchange-correlation      = PZ ( 1  1  0  0 0 0)

     celldm(1)=   6.770369  celldm(2)=   0.000000  celldm(3)=   0.000000
     celldm(4)=   0.000000  celldm(5)=   0.000000  celldm(6)=   0.000000

     crystal axes: (cart. coord. in units of alat)
               a(1) = (  -0.500000   0.000000   0.500000 )  
               a(2) = (   0.000000   0.500000   0.500000 )  
               a(3) = (  -0.500000   0.500000   0.000000 )  

     reciprocal axes: (cart. coord. in units 2 pi/alat)
               b(1) = ( -1.000000 -1.000000  1.000000 )  
               b(2) = (  1.000000  1.000000  1.000000 )  
               b(3) = ( -1.000000  1.000000 -1.000000 )  


     PseudoPot. # 1 for  C read from file:
     ../C.pz-mt.fhi.UPF
     MD5 check sum: b7c38bc33a0cf75f44be89b84470f298
     Pseudo is Norm-conserving, Zval =  4.0
     Generated using FHI98PP, converted with fhi2upf.x v.5.0.2
     Using radial grid of  461 points,  2 beta functions with: 
                l(1) =   0
                l(2) =   1

     atomic species   valence    mass     pseudopotential
        C              4.00    12.01100      C( 1.00)

     No symmetry found



   Cartesian axes

     site n.     atom                  positions (alat units)
         1           C   tau(   1) = (   0.0000000   0.0000000   0.0000000  )
         2           C   tau(   2) = (  -0.2500000   0.2500000   0.2500000  )

     number of k points=    64
                       cart. coord. in units 2pi/alat
        k(    1) = (   0.0000000   0.0000000   0.0000000), wk =   0.0312500
        k(    2) = (  -0.2500000   0.2500000  -0.2500000), wk =   0.0312500
        k(    3) = (   0.5000000  -0.5000000   0.5000000), wk =   0.0312500
        k(    4) = (   0.2500000  -0.2500000   0.2500000), wk =   0.0312500
        k(    5) = (   0.2500000   0.2500000   0.2500000), wk =   0.0312500
        k(    6) = (   0.0000000   0.5000000   0.0000000), wk =   0.0312500
        k(    7) = (   0.7500000  -0.2500000   0.7500000), wk =   0.0312500
        k(    8) = (   0.5000000   0.0000000   0.5000000), wk =   0.0312500
        k(    9) = (  -0.5000000  -0.5000000  -0.5000000), wk =   0.0312500
        k(   10) = (  -0.7500000  -0.2500000  -0.7500000), wk =   0.0312500
        k(   11) = (   0.0000000  -1.0000000   0.0000000), wk =   0.0312500
        k(   12) = (  -0.2500000  -0.7500000  -0.2500000), wk =   0.0312500
        k(   13) = (  -0.2500000  -0.2500000  -0.2500000), wk =   0.0312500
        k(   14) = (  -0.5000000   0.0000000  -0.5000000), wk =   0.0312500
        k(   15) = (   0.2500000  -0.7500000   0.2500000), wk =   0.0312500
        k(   16) = (   0.0000000  -0.5000000   0.0000000), wk =   0.0312500
        k(   17) = (  -0.2500000  -0.2500000   0.2500000), wk =   0.0312500
        k(   18) = (  -0.5000000   0.0000000   0.0000000), wk =   0.0312500
        k(   19) = (   0.2500000  -0.7500000   0.7500000), wk =   0.0312500
        k(   20) = (   0.0000000  -0.5000000   0.5000000), wk =   0.0312500
        k(   21) = (   0.0000000   0.0000000   0.5000000), wk =   0.0312500
        k(   22) = (  -0.2500000   0.2500000   0.2500000), wk =   0.0312500
        k(   23) = (   0.5000000  -0.5000000   1.0000000), wk =   0.0312500
        k(   24) = (   0.2500000  -0.2500000   0.7500000), wk =   0.0312500
        k(   25) = (  -0.7500000  -0.7500000  -0.2500000), wk =   0.0312500
        k(   26) = (  -1.0000000  -0.5000000  -0.5000000), wk =   0.0312500
        k(   27) = (  -0.2500000  -1.2500000   0.2500000), wk =   0.0312500
        k(   28) = (  -0.5000000  -1.0000000   0.0000000), wk =   0.0312500
        k(   29) = (  -0.5000000  -0.5000000   0.0000000), wk =   0.0312500
        k(   30) = (  -0.7500000  -0.2500000  -0.2500000), wk =   0.0312500
        k(   31) = (   0.0000000  -1.0000000   0.5000000), wk =   0.0312500
        k(   32) = (  -0.2500000  -0.7500000   0.2500000), wk =   0.0312500
        k(   33) = (   0.5000000   0.5000000  -0.5000000), wk =   0.0312500
        k(   34) = (   0.2500000   0.7500000  -0.7500000), wk =   0.0312500
        k(   35) = (   1.0000000   0.0000000   0.0000000), wk =   0.0312500
        k(   36) = (   0.7500000   0.2500000  -0.2500000), wk =   0.0312500
        k(   37) = (   0.7500000   0.7500000  -0.2500000), wk =   0.0312500
        k(   38) = (   0.5000000   1.0000000  -0.5000000), wk =   0.0312500
        k(   39) = (   1.2500000   0.2500000   0.2500000), wk =   0.0312500
        k(   40) = (   1.0000000   0.5000000   0.0000000), wk =   0.0312500
        k(   41) = (   0.0000000   0.0000000  -1.0000000), wk =   0.0312500
        k(   42) = (  -0.2500000   0.2500000  -1.2500000), wk =   0.0312500
        k(   43) = (   0.5000000  -0.5000000  -0.5000000), wk =   0.0312500
        k(   44) = (   0.2500000  -0.2500000  -0.7500000), wk =   0.0312500
        k(   45) = (   0.2500000   0.2500000  -0.7500000), wk =   0.0312500
        k(   46) = (   0.0000000   0.5000000  -1.0000000), wk =   0.0312500
        k(   47) = (   0.7500000  -0.2500000  -0.2500000), wk =   0.0312500
        k(   48) = (   0.5000000   0.0000000  -0.5000000), wk =   0.0312500
        k(   49) = (   0.2500000   0.2500000  -0.2500000), wk =   0.0312500
        k(   50) = (   0.0000000   0.5000000  -0.5000000), wk =   0.0312500
        k(   51) = (   0.7500000  -0.2500000   0.2500000), wk =   0.0312500
        k(   52) = (   0.5000000   0.0000000   0.0000000), wk =   0.0312500
        k(   53) = (   0.5000000   0.5000000   0.0000000), wk =   0.0312500
        k(   54) = (   0.2500000   0.7500000  -0.2500000), wk =   0.0312500
        k(   55) = (   1.0000000   0.0000000   0.5000000), wk =   0.0312500
        k(   56) = (   0.7500000   0.2500000   0.2500000), wk =   0.0312500
        k(   57) = (  -0.2500000  -0.2500000  -0.7500000), wk =   0.0312500
        k(   58) = (  -0.5000000   0.0000000  -1.0000000), wk =   0.0312500
        k(   59) = (   0.2500000  -0.7500000  -0.2500000), wk =   0.0312500
        k(   60) = (   0.0000000  -0.5000000  -0.5000000), wk =   0.0312500
        k(   61) = (   0.0000000   0.0000000  -0.5000000), wk =   0.0312500
        k(   62) = (  -0.2500000   0.2500000  -0.7500000), wk =   0.0312500
        k(   63) = (   0.5000000  -0.5000000   0.0000000), wk =   0.0312500
        k(   64) = (   0.2500000  -0.2500000  -0.2500000), wk =   0.0312500

     Dense  grid:     4909 G-vectors     FFT dimensions: (  24,  24,  24)

     Estimated max dynamical RAM per process >       0.18MB

     Estimated total allocated dynamical RAM >       7.34MB

     The potential is recalculated from file :
     ./c.save/charge-density.dat

     Starting wfc are   18 randomized atomic wfcs

     Band Structure Calculation
     Davidson diagonalization with overlap

     ethr =  1.25E-08,  avg # of iterations =  7.2

     total cpu time spent up to now is        2.0 secs

     End of band structure calculation

          k = 0.0000 0.0000 0.0000 (   609 PWs)   bands (ev):

    -8.3093  12.7968  12.7968  12.7968  18.3079  18.3079  18.3079  25.9026

          k =-0.2500 0.2500-0.2500 (   601 PWs)   bands (ev):

    -6.6041   6.3597  11.0859  11.0859  20.4607  20.4607  20.8592  27.0908

          k = 0.5000-0.5000 0.5000 (   610 PWs)   bands (ev):

    -2.5290  -0.3660  10.0505  10.0505  21.1335  21.1335  21.6043  28.0910

          k = 0.2500-0.2500 0.2500 (   601 PWs)   bands (ev):

    -6.6041   6.3597  11.0859  11.0859  20.4607  20.4607  20.8592  27.0908

          k = 0.2500 0.2500 0.2500 (   601 PWs)   bands (ev):

    -6.6041   6.3597  11.0859  11.0859  20.4607  20.4607  20.8592  27.0908

          k = 0.0000 0.5000 0.0000 (   592 PWs)   bands (ev):

    -6.0388   8.4424   8.7508   8.7508  17.1986  22.9001  24.1525  24.1525

          k = 0.7500-0.2500 0.7500 (   608 PWs)   bands (ev):

    -2.3196   2.2452   6.2003   8.0082  18.8019  24.0224  25.3603  25.8653

          k = 0.5000 0.0000 0.5000 (   616 PWs)   bands (ev):

    -3.8674   4.3198   5.3222   9.8423  20.6193  22.6290  24.9094  26.4207

          k =-0.5000-0.5000-0.5000 (   610 PWs)   bands (ev):

    -2.5290  -0.3660  10.0505  10.0505  21.1335  21.1335  21.6043  28.0910

          k =-0.7500-0.2500-0.7500 (   608 PWs)   bands (ev):

    -2.3196   2.2452   6.2003   8.0082  18.8019  24.0224  25.3603  25.8653

          k = 0.0000-1.0000 0.0000 (   620 PWs)   bands (ev):

     0.3345   0.3345   6.6080   6.6080  17.5108  17.5108  29.2059  29.2059

          k =-0.2500-0.7500-0.2500 (   608 PWs)   bands (ev):

    -2.3196   2.2452   6.2003   8.0082  18.8019  24.0224  25.3603  25.8653

          k =-0.2500-0.2500-0.2500 (   601 PWs)   bands (ev):

    -6.6041   6.3597  11.0859  11.0859  20.4607  20.4607  20.8592  27.0908

          k =-0.5000 0.0000-0.5000 (   616 PWs)   bands (ev):

    -3.8674   4.3198   5.3222   9.8423  20.6193  22.6290  24.9094  26.4207

          k = 0.2500-0.7500 0.2500 (   608 PWs)   bands (ev):

    -2.3196   2.2452   6.2003   8.0082  18.8019  24.0224  25.3603  25.8653

          k = 0.0000-0.5000 0.0000 (   592 PWs)   bands (ev):

    -6.0388   8.4424   8.7508   8.7508  17.1986  22.9001  24.1525  24.1525

          k =-0.2500-0.2500 0.2500 (   601 PWs)   bands (ev):

    -6.6041   6.3597  11.0859  11.0859  20.4607  20.4607  20.8592  27.0908

          k =-0.5000 0.0000 0.0000 (   592 PWs)   bands (ev):

    -6.0388   8.4424   8.7508   8.7508  17.1986  22.9001  24.1525  24.1525

          k = 0.2500-0.7500 0.7500 (   608 PWs)   bands (ev):

    -2.3196   2.2452   6.2003   8.0082  18.8019  24.0224  25.3603  25.8653

          k = 0.0000-0.5000 0.5000 (   616 PWs)   bands (ev):

    -3.8674   4.3198   5.3222   9.8423  20.6193  22.6290  24.9094  26.4207

          k = 0.0000 0.0000 0.5000 (   592 PWs)   bands (ev):

    -6.0388   8.4424   8.7508   8.7508  17.1986  22.9001  24.1525  24.1525

          k =-0.2500 0.2500 0.2500 (   601 PWs)   bands (ev):

    -6.6041   6.3597  11.0859  11.0859  20.4607  20.4607  20.8592  27.0908

          k = 0.5000-0.5000 1.0000 (   616 PWs)   bands (ev):

    -3.8674   4.3198   5.3222   9.8423  20.6193  22.6290  24.9094  26.4207

          k = 0.2500-0.2500 0.7500 (   608 PWs)   bands (ev):

    -2.3196   2.2452   6.2003   8.0082  18.8019  24.0224  25.3603  25.8653

          k =-0.7500-0.7500-0.2500 (   608 PWs)   bands (ev):

    -2.3196   2.2452   6.2003   8.0082  18.8019  24.0224  25.3603  25.8653

          k =-1.0000-0.5000-0.5000 (   616 PWs)   bands (ev):

    -3.8674   4.3198   5.3222   9.8423  20.6193  22.6290  24.9094  26.4207

          k =-0.2500-1.2500 0.2500 (   608 PWs)   bands (ev):

    -2.3196   2.2452   6.2003   8.0082  18.8019  24.0224  25.3603  25.8653

          k =-0.5000-1.0000 0.0000 (   616 PWs)   bands (ev):

     1.1467   1.1467   4.5855   4.5855  23.1978  23.1978  24.9170  24.9170

          k =-0.5000-0.5000 0.0000 (   616 PWs)   bands (ev):

    -3.8674   4.3198   5.3222   9.8423  20.6193  22.6290  24.9094  26.4207

          k =-0.7500-0.2500-0.2500 (   608 PWs)   bands (ev):

    -2.3196   2.2452   6.2003   8.0082  18.8019  24.0224  25.3603  25.8653

          k = 0.0000-1.0000 0.5000 (   616 PWs)   bands (ev):

     1.1467   1.1467   4.5855   4.5855  23.1978  23.1978  24.9170  24.9170

          k =-0.2500-0.7500 0.2500 (   608 PWs)   bands (ev):

    -2.3196   2.2452   6.2003   8.0082  18.8019  24.0224  25.3603  25.8653

          k = 0.5000 0.5000-0.5000 (   610 PWs)   bands (ev):

    -2.5290  -0.3660  10.0505  10.0505  21.1335  21.1335  21.6043  28.0910

          k = 0.2500 0.7500-0.7500 (   608 PWs)   bands (ev):

    -2.3196   2.2452   6.2003   8.0082  18.8019  24.0224  25.3603  25.8653

          k = 1.0000 0.0000 0.0000 (   620 PWs)   bands (ev):

     0.3345   0.3345   6.6080   6.6080  17.5108  17.5108  29.2059  29.2059

          k = 0.7500 0.2500-0.2500 (   608 PWs)   bands (ev):

    -2.3196   2.2452   6.2003   8.0082  18.8019  24.0224  25.3603  25.8653

          k = 0.7500 0.7500-0.2500 (   608 PWs)   bands (ev):

    -2.3196   2.2452   6.2003   8.0082  18.8019  24.0224  25.3603  25.8653

          k = 0.5000 1.0000-0.5000 (   616 PWs)   bands (ev):

    -3.8674   4.3198   5.3222   9.8423  20.6193  22.6290  24.9094  26.4207

          k = 1.2500 0.2500 0.2500 (   608 PWs)   bands (ev):

    -2.3196   2.2452   6.2003   8.0082  18.8019  24.0224  25.3603  25.8653

          k = 1.0000 0.5000 0.0000 (   616 PWs)   bands (ev):

     1.1467   1.1467   4.5855   4.5855  23.1978  23.1978  24.9170  24.9170

          k = 0.0000 0.0000-1.0000 (   620 PWs)   bands (ev):

     0.3345   0.3345   6.6080   6.6080  17.5108  17.5108  29.2059  29.2059

          k =-0.2500 0.2500-1.2500 (   608 PWs)   bands (ev):

    -2.3196   2.2452   6.2003   8.0082  18.8019  24.0224  25.3603  25.8653

          k = 0.5000-0.5000-0.5000 (   610 PWs)   bands (ev):

    -2.5290  -0.3660  10.0505  10.0505  21.1335  21.1335  21.6043  28.0910

          k = 0.2500-0.2500-0.7500 (   608 PWs)   bands (ev):

    -2.3196   2.2452   6.2003   8.0082  18.8019  24.0224  25.3603  25.8653

          k = 0.2500 0.2500-0.7500 (   608 PWs)   bands (ev):

    -2.3196   2.2452   6.2003   8.0082  18.8019  24.0224  25.3603  25.8653

          k = 0.0000 0.5000-1.0000 (   616 PWs)   bands (ev):

     1.1467   1.1467   4.5855   4.5855  23.1978  23.1978  24.9170  24.9170

          k = 0.7500-0.2500-0.2500 (   608 PWs)   bands (ev):

    -2.3196   2.2452   6.2003   8.0082  18.8019  24.0224  25.3603  25.8653

          k = 0.5000 0.0000-0.5000 (   616 PWs)   bands (ev):

    -3.8674   4.3198   5.3222   9.8423  20.6193  22.6290  24.9094  26.4207

          k = 0.2500 0.2500-0.2500 (   601 PWs)   bands (ev):

    -6.6041   6.3597  11.0859  11.0859  20.4607  20.4607  20.8592  27.0908

          k = 0.0000 0.5000-0.5000 (   616 PWs)   bands (ev):

    -3.8674   4.3198   5.3222   9.8423  20.6193  22.6290  24.9094  26.4207

          k = 0.7500-0.2500 0.2500 (   608 PWs)   bands (ev):

    -2.3196   2.2452   6.2003   8.0082  18.8019  24.0224  25.3603  25.8653

          k = 0.5000 0.0000 0.0000 (   592 PWs)   bands (ev):

    -6.0388   8.4424   8.7508   8.7508  17.1986  22.9001  24.1525  24.1525

          k = 0.5000 0.5000 0.0000 (   616 PWs)   bands (ev):

    -3.8674   4.3198   5.3222   9.8423  20.6193  22.6290  24.9094  26.4207

          k = 0.2500 0.7500-0.2500 (   608 PWs)   bands (ev):

    -2.3196   2.2452   6.2003   8.0082  18.8019  24.0224  25.3603  25.8653

          k = 1.0000 0.0000 0.5000 (   616 PWs)   bands (ev):

     1.1467   1.1467   4.5855   4.5855  23.1978  23.1978  24.9170  24.9170

          k = 0.7500 0.2500 0.2500 (   608 PWs)   bands (ev):

    -2.3196   2.2452   6.2003   8.0082  18.8019  24.0224  25.3603  25.8653

          k =-0.2500-0.2500-0.7500 (   608 PWs)   bands (ev):

    -2.3196   2.2452   6.2003   8.0082  18.8019  24.0224  25.3603  25.8653

          k =-0.5000 0.0000-1.0000 (   616 PWs)   bands (ev):

     1.1467   1.1467   4.5855   4.5855  23.1978  23.1978  24.9170  24.9170

          k = 0.2500-0.7500-0.2500 (   608 PWs)   bands (ev):

    -2.3196   2.2452   6.2003   8.0082  18.8019  24.0224  25.3603  25.8653

          k = 0.0000-0.5000-0.5000 (   616 PWs)   bands (ev):

    -3.8674   4.3198   5.3222   9.8423  20.6193  22.6290  24.9094  26.4207

          k = 0.0000 0.0000-0.5000 (   592 PWs)   bands (ev):

    -6.0388   8.4424   8.7508   8.7508  17.1986  22.9001  24.1525  24.1525

          k =-0.2500 0.2500-0.7500 (   608 PWs)   bands (ev):

    -2.3196   2.2452   6.2003   8.0082  18.8019  24.0224  25.3603  25.8653

          k = 0.5000-0.5000 0.0000 (   616 PWs)   bands (ev):

    -3.8674   4.3198   5.3222   9.8423  20.6193  22.6290  24.9094  26.4207

          k = 0.2500-0.2500-0.2500 (   601 PWs)   bands (ev):

    -6.6041   6.3597  11.0859  11.0859  20.4607  20.4607  20.8592  27.0908

     highest occupied, lowest unoccupied level (ev):    12.7968   17.1986

     Writing output data file c.save
 
     init_run     :      0.02s CPU      0.02s WALL (       1 calls)
     electrons    :      1.77s CPU      1.81s WALL (       1 calls)

     Called by init_run:
     wfcinit      :      0.00s CPU      0.00s WALL (       1 calls)
     potinit      :      0.00s CPU      0.00s WALL (       1 calls)

     Called by electrons:
     c_bands      :      1.77s CPU      1.80s WALL (       1 calls)
     v_of_rho     :      0.00s CPU      0.00s WALL (       1 calls)

     Called by c_bands:
     init_us_2    :      0.00s CPU      0.00s WALL (      64 calls)
     cegterg      :      1.53s CPU      1.55s WALL (      64 calls)

     Called by sum_band:

     Called by *egterg:
     h_psi        :      0.31s CPU      0.31s WALL (     592 calls)
     g_psi        :      0.00s CPU      0.00s WALL (     464 calls)
     cdiaghg      :      0.98s CPU      1.00s WALL (     528 calls)

     Called by h_psi:
     h_psi:pot    :      0.30s CPU      0.31s WALL (     592 calls)
     h_psi:calbec :      0.01s CPU      0.01s WALL (     592 calls)
     vloc_psi     :      0.29s CPU      0.29s WALL (     592 calls)
     add_vuspsi   :      0.00s CPU      0.00s WALL (     592 calls)

     General routines
     calbec       :      0.01s CPU      0.01s WALL (     592 calls)
     fft          :      0.00s CPU      0.00s WALL (       3 calls)
     fftw         :      0.27s CPU      0.28s WALL (    9282 calls)
 
     Parallel routines
     fft_scatter  :      0.22s CPU      0.23s WALL (    9285 calls)
 
     PWSCF        :     2.21s CPU         3.06s WALL

 
   This run was terminated on:  10:54:57  13Jan2021            

=------------------------------------------------------------------------------=
   JOB DONE.
=------------------------------------------------------------------------------=
