
     Program PWSCF v.6.1 (svn rev. 13369) starts on 13Jan2021 at 10:54:50 

     This program is part of the open-source Quantum ESPRESSO suite
     for quantum simulation of materials; please cite
         "P. Giannozzi et al., J. Phys.:Condens. Matter 21 395502 (2009);
          URL http://www.quantum-espresso.org", 
     in publications or presentations arising from this work. More details at
     http://www.quantum-espresso.org/quote

     Parallel version (MPI & OpenMP), running on      40 processor cores
     Number of MPI processes:                40
     Threads/MPI process:                     1
     R & G space division:  proc/nbgrp/npool/nimage =      40
     Waiting for input...
     Reading input from standard input

     Current dimensions of program PWSCF are:
     Max number of different atomic species (ntypx) = 10
     Max number of k-points (npk) =  40000
     Max angular momentum in pseudopotentials (lmaxx) =  3

     IMPORTANT: XC functional enforced from input :
     Exchange-correlation      = PZ ( 1  1  0  0 0 0)
     Any further DFT definition will be discarded
     Please, verify this is what you really want

               file C.pz-mt.fhi.UPF: wavefunction(s)  3d renormalized

     Subspace diagonalization in iterative solution of the eigenvalue problem:
     one sub-group per band group will be used
     scalapack distributed-memory algorithm (size of sub-group:  4*  4 procs)

 
     Parallelization info
     --------------------
     sticks:   dense  smooth     PW     G-vecs:    dense   smooth      PW
     Min           9       9      3                  122      122      21
     Max          10      10      4                  125      125      24
     Sum         379     379    121                 4909     4909     893
 


     bravais-lattice index     =            2
     lattice parameter (alat)  =       6.7704  a.u.
     unit-cell volume          =      77.5849 (a.u.)^3
     number of atoms/cell      =            2
     number of atomic types    =            1
     number of electrons       =         8.00
     number of Kohn-Sham states=            4
     kinetic-energy cutoff     =      60.0000  Ry
     charge density cutoff     =     240.0000  Ry
     convergence threshold     =      1.0E-20
     mixing beta               =       0.7000
     number of iterations used =            8  plain     mixing
     Exchange-correlation      = PZ ( 1  1  0  0 0 0)

     celldm(1)=   6.770369  celldm(2)=   0.000000  celldm(3)=   0.000000
     celldm(4)=   0.000000  celldm(5)=   0.000000  celldm(6)=   0.000000

     crystal axes: (cart. coord. in units of alat)
               a(1) = (  -0.500000   0.000000   0.500000 )  
               a(2) = (   0.000000   0.500000   0.500000 )  
               a(3) = (  -0.500000   0.500000   0.000000 )  

     reciprocal axes: (cart. coord. in units 2 pi/alat)
               b(1) = ( -1.000000 -1.000000  1.000000 )  
               b(2) = (  1.000000  1.000000  1.000000 )  
               b(3) = ( -1.000000  1.000000 -1.000000 )  


     PseudoPot. # 1 for  C read from file:
     ../C.pz-mt.fhi.UPF
     MD5 check sum: b7c38bc33a0cf75f44be89b84470f298
     Pseudo is Norm-conserving, Zval =  4.0
     Generated using FHI98PP, converted with fhi2upf.x v.5.0.2
     Using radial grid of  461 points,  2 beta functions with: 
                l(1) =   0
                l(2) =   1

     atomic species   valence    mass     pseudopotential
        C              4.00    12.01100      C( 1.00)

     48 Sym. Ops., with inversion, found (24 have fractional translation)



   Cartesian axes

     site n.     atom                  positions (alat units)
         1           C   tau(   1) = (   0.0000000   0.0000000   0.0000000  )
         2           C   tau(   2) = (  -0.2500000   0.2500000   0.2500000  )

     number of k points=     8
                       cart. coord. in units 2pi/alat
        k(    1) = (   0.0000000   0.0000000   0.0000000), wk =   0.0312500
        k(    2) = (  -0.2500000   0.2500000  -0.2500000), wk =   0.2500000
        k(    3) = (   0.5000000  -0.5000000   0.5000000), wk =   0.1250000
        k(    4) = (   0.0000000   0.5000000   0.0000000), wk =   0.1875000
        k(    5) = (   0.7500000  -0.2500000   0.7500000), wk =   0.7500000
        k(    6) = (   0.5000000   0.0000000   0.5000000), wk =   0.3750000
        k(    7) = (   0.0000000  -1.0000000   0.0000000), wk =   0.0937500
        k(    8) = (  -0.5000000  -1.0000000   0.0000000), wk =   0.1875000

     Dense  grid:     4909 G-vectors     FFT dimensions: (  24,  24,  24)

     Estimated max dynamical RAM per process >       0.17MB

     Estimated total allocated dynamical RAM >       6.74MB
     Message from routine sym_rho_init:
     some processors have no G-vectors for symmetrization
     Message from routine sym_rho_init:
     some processors have no G-vectors for symmetrization
     Message from routine sym_rho_init:
     some processors have no G-vectors for symmetrization
     Message from routine sym_rho_init:
     some processors have no G-vectors for symmetrization
     Message from routine sym_rho_init:
     some processors have no G-vectors for symmetrization
     Message from routine sym_rho_init:
     some processors have no G-vectors for symmetrization

     Initial potential from superposition of free atoms

     starting charge    7.99993, renormalised to    8.00000
     Starting wfc are   18 randomized atomic wfcs

     total cpu time spent up to now is        0.8 secs

     per-process dynamical memory:    12.6 Mb

     Self-consistent Calculation

     iteration #  1     ecut=    60.00 Ry     beta=0.70
     Davidson diagonalization with overlap
     ethr =  1.00E-02,  avg # of iterations =  2.0

     total cpu time spent up to now is        1.0 secs

     total energy              =     -22.86501627 Ry
     Harris-Foulkes estimate   =     -22.92954866 Ry
     estimated scf accuracy    <       0.12420922 Ry

     iteration #  2     ecut=    60.00 Ry     beta=0.70
     Davidson diagonalization with overlap
     ethr =  1.55E-03,  avg # of iterations =  2.0

     total cpu time spent up to now is        1.1 secs

     total energy              =     -22.87612402 Ry
     Harris-Foulkes estimate   =     -22.87669662 Ry
     estimated scf accuracy    <       0.00204522 Ry

     iteration #  3     ecut=    60.00 Ry     beta=0.70
     Davidson diagonalization with overlap
     ethr =  2.56E-05,  avg # of iterations =  1.9

     total cpu time spent up to now is        1.1 secs

     total energy              =     -22.87644055 Ry
     Harris-Foulkes estimate   =     -22.87645584 Ry
     estimated scf accuracy    <       0.00007350 Ry

     iteration #  4     ecut=    60.00 Ry     beta=0.70
     Davidson diagonalization with overlap
     ethr =  9.19E-07,  avg # of iterations =  2.8

     total cpu time spent up to now is        1.2 secs

     total energy              =     -22.87646379 Ry
     Harris-Foulkes estimate   =     -22.87646534 Ry
     estimated scf accuracy    <       0.00000292 Ry

     iteration #  5     ecut=    60.00 Ry     beta=0.70
     Davidson diagonalization with overlap
     ethr =  3.65E-08,  avg # of iterations =  2.4

     total cpu time spent up to now is        1.2 secs

     total energy              =     -22.87646455 Ry
     Harris-Foulkes estimate   =     -22.87646454 Ry
     estimated scf accuracy    <       0.00000001 Ry

     iteration #  6     ecut=    60.00 Ry     beta=0.70
     Davidson diagonalization with overlap
     ethr =  1.56E-10,  avg # of iterations =  3.2

     total cpu time spent up to now is        1.3 secs

     total energy              =     -22.87646456 Ry
     Harris-Foulkes estimate   =     -22.87646457 Ry
     estimated scf accuracy    <          1.7E-09 Ry

     iteration #  7     ecut=    60.00 Ry     beta=0.70
     Davidson diagonalization with overlap
     ethr =  2.18E-11,  avg # of iterations =  2.0

     total cpu time spent up to now is        1.3 secs

     total energy              =     -22.87646456 Ry
     Harris-Foulkes estimate   =     -22.87646456 Ry
     estimated scf accuracy    <          1.3E-11 Ry

     iteration #  8     ecut=    60.00 Ry     beta=0.70
     Davidson diagonalization with overlap
     ethr =  1.67E-13,  avg # of iterations =  3.0

     total cpu time spent up to now is        1.4 secs

     total energy              =     -22.87646456 Ry
     Harris-Foulkes estimate   =     -22.87646456 Ry
     estimated scf accuracy    <          3.8E-13 Ry

     iteration #  9     ecut=    60.00 Ry     beta=0.70
     Davidson diagonalization with overlap
     ethr =  1.00E-13,  avg # of iterations =  1.0

     total cpu time spent up to now is        1.4 secs

     total energy              =     -22.87646456 Ry
     Harris-Foulkes estimate   =     -22.87646456 Ry
     estimated scf accuracy    <          2.5E-14 Ry

     iteration # 10     ecut=    60.00 Ry     beta=0.70
     Davidson diagonalization with overlap
     ethr =  1.00E-13,  avg # of iterations =  1.0

     total cpu time spent up to now is        1.5 secs

     total energy              =     -22.87646456 Ry
     Harris-Foulkes estimate   =     -22.87646456 Ry
     estimated scf accuracy    <          1.0E-15 Ry

     iteration # 11     ecut=    60.00 Ry     beta=0.70
     Davidson diagonalization with overlap
     ethr =  1.00E-13,  avg # of iterations =  1.0

     total cpu time spent up to now is        1.5 secs

     total energy              =     -22.87646456 Ry
     Harris-Foulkes estimate   =     -22.87646456 Ry
     estimated scf accuracy    <          1.2E-16 Ry

     iteration # 12     ecut=    60.00 Ry     beta=0.70
     Davidson diagonalization with overlap
     ethr =  1.00E-13,  avg # of iterations =  1.0

     total cpu time spent up to now is        1.5 secs

     total energy              =     -22.87646456 Ry
     Harris-Foulkes estimate   =     -22.87646456 Ry
     estimated scf accuracy    <          2.2E-17 Ry

     iteration # 13     ecut=    60.00 Ry     beta=0.70
     Davidson diagonalization with overlap
     ethr =  1.00E-13,  avg # of iterations =  1.0

     total cpu time spent up to now is        1.6 secs

     total energy              =     -22.87646456 Ry
     Harris-Foulkes estimate   =     -22.87646456 Ry
     estimated scf accuracy    <          5.5E-19 Ry

     iteration # 14     ecut=    60.00 Ry     beta=0.70
     Davidson diagonalization with overlap
     ethr =  1.00E-13,  avg # of iterations =  1.0

     total cpu time spent up to now is        1.6 secs

     total energy              =     -22.87646456 Ry
     Harris-Foulkes estimate   =     -22.87646456 Ry
     estimated scf accuracy    <          6.4E-20 Ry

     iteration # 15     ecut=    60.00 Ry     beta=0.70
     Davidson diagonalization with overlap
     ethr =  1.00E-13,  avg # of iterations =  1.0

     total cpu time spent up to now is        1.6 secs

     total energy              =     -22.87646456 Ry
     Harris-Foulkes estimate   =     -22.87646456 Ry
     estimated scf accuracy    <          8.4E-20 Ry

     iteration # 16     ecut=    60.00 Ry     beta=0.70
     Davidson diagonalization with overlap
     ethr =  1.00E-13,  avg # of iterations =  1.0

     total cpu time spent up to now is        1.7 secs

     total energy              =     -22.87646456 Ry
     Harris-Foulkes estimate   =     -22.87646456 Ry
     estimated scf accuracy    <          7.4E-20 Ry

     iteration # 17     ecut=    60.00 Ry     beta=0.70
     Davidson diagonalization with overlap
     ethr =  1.00E-13,  avg # of iterations =  1.0

     total cpu time spent up to now is        1.7 secs

     total energy              =     -22.87646456 Ry
     Harris-Foulkes estimate   =     -22.87646456 Ry
     estimated scf accuracy    <          1.1E-19 Ry

     iteration # 18     ecut=    60.00 Ry     beta=0.70
     Davidson diagonalization with overlap
     ethr =  1.00E-13,  avg # of iterations =  1.0

     total cpu time spent up to now is        1.7 secs

     total energy              =     -22.87646456 Ry
     Harris-Foulkes estimate   =     -22.87646456 Ry
     estimated scf accuracy    <          1.7E-19 Ry

     iteration # 19     ecut=    60.00 Ry     beta=0.70
     Davidson diagonalization with overlap
     ethr =  1.00E-13,  avg # of iterations =  1.0

     total cpu time spent up to now is        1.7 secs

     End of self-consistent calculation

          k = 0.0000 0.0000 0.0000 (   609 PWs)   bands (ev):

    -8.3093  12.7968  12.7968  12.7968

          k =-0.2500 0.2500-0.2500 (   601 PWs)   bands (ev):

    -6.6041   6.3597  11.0859  11.0859

          k = 0.5000-0.5000 0.5000 (   610 PWs)   bands (ev):

    -2.5290  -0.3660  10.0505  10.0505

          k = 0.0000 0.5000 0.0000 (   592 PWs)   bands (ev):

    -6.0388   8.4424   8.7508   8.7508

          k = 0.7500-0.2500 0.7500 (   608 PWs)   bands (ev):

    -2.3196   2.2452   6.2003   8.0082

          k = 0.5000 0.0000 0.5000 (   616 PWs)   bands (ev):

    -3.8674   4.3198   5.3222   9.8423

          k = 0.0000-1.0000 0.0000 (   620 PWs)   bands (ev):

     0.3345   0.3345   6.6080   6.6080

          k =-0.5000-1.0000 0.0000 (   616 PWs)   bands (ev):

     1.1467   1.1467   4.5855   4.5855

     highest occupied level (ev):    12.7968

!    total energy              =     -22.87646456 Ry
     Harris-Foulkes estimate   =     -22.87646456 Ry
     estimated scf accuracy    <          3.1E-21 Ry

     The total energy is the sum of the following terms:

     one-electron contribution =       7.68475132 Ry
     hartree contribution      =       1.95160235 Ry
     xc contribution           =      -7.05223625 Ry
     ewald contribution        =     -25.46058198 Ry

     convergence has been achieved in  19 iterations

     Writing output data file c.save
 
     init_run     :      0.13s CPU      0.49s WALL (       1 calls)
     electrons    :      0.81s CPU      0.91s WALL (       1 calls)

     Called by init_run:
     wfcinit      :      0.07s CPU      0.16s WALL (       1 calls)
     potinit      :      0.01s CPU      0.05s WALL (       1 calls)

     Called by electrons:
     c_bands      :      0.75s CPU      0.80s WALL (      19 calls)
     sum_band     :      0.03s CPU      0.04s WALL (      19 calls)
     v_of_rho     :      0.01s CPU      0.02s WALL (      20 calls)
     mix_rho      :      0.01s CPU      0.02s WALL (      19 calls)

     Called by c_bands:
     init_us_2    :      0.00s CPU      0.00s WALL (     312 calls)
     cegterg      :      0.74s CPU      0.77s WALL (     152 calls)

     Called by sum_band:

     Called by *egterg:
     h_psi        :      0.12s CPU      0.15s WALL (     402 calls)
     g_psi        :      0.00s CPU      0.00s WALL (     242 calls)
     cdiaghg      :      0.40s CPU      0.44s WALL (     394 calls)

     Called by h_psi:
     h_psi:pot    :      0.12s CPU      0.15s WALL (     402 calls)
     h_psi:calbec :      0.01s CPU      0.02s WALL (     402 calls)
     vloc_psi     :      0.10s CPU      0.11s WALL (     402 calls)
     add_vuspsi   :      0.00s CPU      0.00s WALL (     402 calls)

     General routines
     calbec       :      0.01s CPU      0.02s WALL (     402 calls)
     fft          :      0.01s CPU      0.07s WALL (      79 calls)
     fftw         :      0.12s CPU      0.12s WALL (    3764 calls)
 
     Parallel routines
     fft_scatter  :      0.10s CPU      0.11s WALL (    3843 calls)
 
     PWSCF        :     1.09s CPU         1.97s WALL

 
   This run was terminated on:  10:54:52  13Jan2021            

=------------------------------------------------------------------------------=
   JOB DONE.
=------------------------------------------------------------------------------=
