
     Program PWSCF v.6.1 (svn rev. 13369) starts on 31Jan2021 at 19:57:39 

     This program is part of the open-source Quantum ESPRESSO suite
     for quantum simulation of materials; please cite
         "P. Giannozzi et al., J. Phys.:Condens. Matter 21 395502 (2009);
          URL http://www.quantum-espresso.org", 
     in publications or presentations arising from this work. More details at
     http://www.quantum-espresso.org/quote

     Parallel version (MPI & OpenMP), running on      40 processor cores
     Number of MPI processes:                40
     Threads/MPI process:                     1
     R & G space division:  proc/nbgrp/npool/nimage =      40
     Waiting for input...
     Reading input from standard input

     Current dimensions of program PWSCF are:
     Max number of different atomic species (ntypx) = 10
     Max number of k-points (npk) =  40000
     Max angular momentum in pseudopotentials (lmaxx) =  3

     IMPORTANT: XC functional enforced from input :
     Exchange-correlation      = PZ ( 1  1  0  0 0 0)
     Any further DFT definition will be discarded
     Please, verify this is what you really want

               file C.pz-mt.fhi.UPF: wavefunction(s)  3d renormalized

     Subspace diagonalization in iterative solution of the eigenvalue problem:
     one sub-group per band group will be used
     scalapack distributed-memory algorithm (size of sub-group:  4*  4 procs)

 
     Parallelization info
     --------------------
     sticks:   dense  smooth     PW     G-vecs:    dense   smooth      PW
     Min           9       9      3                  115      115      21
     Max          10      10      4                  119      119      24
     Sum         367     367    121                 4645     4645     893
 


     bravais-lattice index     =            2
     lattice parameter (alat)  =       6.6493  a.u.
     unit-cell volume          =      73.4957 (a.u.)^3
     number of atoms/cell      =            2
     number of atomic types    =            1
     number of electrons       =         8.00
     number of Kohn-Sham states=            8
     kinetic-energy cutoff     =      60.0000  Ry
     charge density cutoff     =     240.0000  Ry
     convergence threshold     =      1.0E-15
     mixing beta               =       0.7000
     number of iterations used =            8  plain     mixing
     Exchange-correlation      = PZ ( 1  1  0  0 0 0)

     celldm(1)=   6.649271  celldm(2)=   0.000000  celldm(3)=   0.000000
     celldm(4)=   0.000000  celldm(5)=   0.000000  celldm(6)=   0.000000

     crystal axes: (cart. coord. in units of alat)
               a(1) = (  -0.500000   0.000000   0.500000 )  
               a(2) = (   0.000000   0.500000   0.500000 )  
               a(3) = (  -0.500000   0.500000   0.000000 )  

     reciprocal axes: (cart. coord. in units 2 pi/alat)
               b(1) = ( -1.000000 -1.000000  1.000000 )  
               b(2) = (  1.000000  1.000000  1.000000 )  
               b(3) = ( -1.000000  1.000000 -1.000000 )  


     PseudoPot. # 1 for  C read from file:
     ../C.pz-mt.fhi.UPF
     MD5 check sum: b7c38bc33a0cf75f44be89b84470f298
     Pseudo is Norm-conserving, Zval =  4.0
     Generated using FHI98PP, converted with fhi2upf.x v.5.0.2
     Using radial grid of  461 points,  2 beta functions with: 
                l(1) =   0
                l(2) =   1

     atomic species   valence    mass     pseudopotential
        C              4.00    12.01100      C( 1.00)

     48 Sym. Ops., with inversion, found (24 have fractional translation)



   Cartesian axes

     site n.     atom                  positions (alat units)
         1           C   tau(   1) = (   0.0000000   0.0000000   0.0000000  )
         2           C   tau(   2) = (  -0.2500000   0.2500000   0.2500000  )

     number of k points=    72
                       cart. coord. in units 2pi/alat
        k(    1) = (   0.0000000   0.0000000   0.0000000), wk =   0.0011574
        k(    2) = (  -0.0833333   0.0833333  -0.0833333), wk =   0.0092593
        k(    3) = (  -0.1666667   0.1666667  -0.1666667), wk =   0.0092593
        k(    4) = (  -0.2500000   0.2500000  -0.2500000), wk =   0.0092593
        k(    5) = (  -0.3333333   0.3333333  -0.3333333), wk =   0.0092593
        k(    6) = (  -0.4166667   0.4166667  -0.4166667), wk =   0.0092593
        k(    7) = (   0.5000000  -0.5000000   0.5000000), wk =   0.0046296
        k(    8) = (   0.0000000   0.1666667   0.0000000), wk =   0.0069444
        k(    9) = (  -0.0833333   0.2500000  -0.0833333), wk =   0.0277778
        k(   10) = (  -0.1666667   0.3333333  -0.1666667), wk =   0.0277778
        k(   11) = (  -0.2500000   0.4166667  -0.2500000), wk =   0.0277778
        k(   12) = (  -0.3333333   0.5000000  -0.3333333), wk =   0.0277778
        k(   13) = (   0.5833333  -0.4166667   0.5833333), wk =   0.0277778
        k(   14) = (   0.5000000  -0.3333333   0.5000000), wk =   0.0277778
        k(   15) = (   0.4166667  -0.2500000   0.4166667), wk =   0.0277778
        k(   16) = (   0.3333333  -0.1666667   0.3333333), wk =   0.0277778
        k(   17) = (   0.2500000  -0.0833333   0.2500000), wk =   0.0277778
        k(   18) = (   0.1666667  -0.0000000   0.1666667), wk =   0.0138889
        k(   19) = (   0.0000000   0.3333333   0.0000000), wk =   0.0069444
        k(   20) = (  -0.0833333   0.4166667  -0.0833333), wk =   0.0277778
        k(   21) = (  -0.1666667   0.5000000  -0.1666667), wk =   0.0277778
        k(   22) = (  -0.2500000   0.5833333  -0.2500000), wk =   0.0277778
        k(   23) = (   0.6666667  -0.3333333   0.6666667), wk =   0.0277778
        k(   24) = (   0.5833333  -0.2500000   0.5833333), wk =   0.0277778
        k(   25) = (   0.5000000  -0.1666667   0.5000000), wk =   0.0277778
        k(   26) = (   0.4166667  -0.0833333   0.4166667), wk =   0.0277778
        k(   27) = (   0.3333333   0.0000000   0.3333333), wk =   0.0138889
        k(   28) = (   0.0000000   0.5000000   0.0000000), wk =   0.0069444
        k(   29) = (  -0.0833333   0.5833333  -0.0833333), wk =   0.0277778
        k(   30) = (  -0.1666667   0.6666667  -0.1666667), wk =   0.0277778
        k(   31) = (   0.7500000  -0.2500000   0.7500000), wk =   0.0277778
        k(   32) = (   0.6666667  -0.1666667   0.6666667), wk =   0.0277778
        k(   33) = (   0.5833333  -0.0833333   0.5833333), wk =   0.0277778
        k(   34) = (   0.5000000   0.0000000   0.5000000), wk =   0.0138889
        k(   35) = (   0.0000000   0.6666667   0.0000000), wk =   0.0069444
        k(   36) = (  -0.0833333   0.7500000  -0.0833333), wk =   0.0277778
        k(   37) = (   0.8333333  -0.1666667   0.8333333), wk =   0.0277778
        k(   38) = (   0.7500000  -0.0833333   0.7500000), wk =   0.0277778
        k(   39) = (   0.6666667  -0.0000000   0.6666667), wk =   0.0138889
        k(   40) = (   0.0000000   0.8333333   0.0000000), wk =   0.0069444
        k(   41) = (   0.9166667  -0.0833333   0.9166667), wk =   0.0277778
        k(   42) = (   0.8333333   0.0000000   0.8333333), wk =   0.0138889
        k(   43) = (   0.0000000  -1.0000000   0.0000000), wk =   0.0034722
        k(   44) = (  -0.1666667   0.3333333   0.0000000), wk =   0.0277778
        k(   45) = (  -0.2500000   0.4166667  -0.0833333), wk =   0.0555556
        k(   46) = (  -0.3333333   0.5000000  -0.1666667), wk =   0.0555556
        k(   47) = (   0.5833333  -0.4166667   0.7500000), wk =   0.0555556
        k(   48) = (   0.5000000  -0.3333333   0.6666667), wk =   0.0277778
        k(   49) = (  -0.1666667   0.5000000   0.0000000), wk =   0.0277778
        k(   50) = (  -0.2500000   0.5833333  -0.0833333), wk =   0.0555556
        k(   51) = (   0.6666667  -0.3333333   0.8333333), wk =   0.0555556
        k(   52) = (   0.5833333  -0.2500000   0.7500000), wk =   0.0555556
        k(   53) = (   0.5000000  -0.1666667   0.6666667), wk =   0.0555556
        k(   54) = (   0.4166667  -0.0833333   0.5833333), wk =   0.0555556
        k(   55) = (   0.3333333   0.0000000   0.5000000), wk =   0.0277778
        k(   56) = (  -0.1666667   0.6666667  -0.0000000), wk =   0.0277778
        k(   57) = (   0.7500000  -0.2500000   0.9166667), wk =   0.0555556
        k(   58) = (   0.6666667  -0.1666667   0.8333333), wk =   0.0555556
        k(   59) = (   0.5833333  -0.0833333   0.7500000), wk =   0.0555556
        k(   60) = (   0.5000000   0.0000000   0.6666667), wk =   0.0277778
        k(   61) = (   0.8333333  -0.1666667   1.0000000), wk =   0.0277778
        k(   62) = (   0.7500000  -0.0833333   0.9166667), wk =   0.0555556
        k(   63) = (   0.6666667   0.0000000   0.8333333), wk =   0.0277778
        k(   64) = (  -0.1666667  -1.0000000  -0.0000000), wk =   0.0138889
        k(   65) = (   0.6666667  -0.3333333   1.0000000), wk =   0.0277778
        k(   66) = (   0.5833333  -0.2500000   0.9166667), wk =   0.0555556
        k(   67) = (   0.5000000  -0.1666667   0.8333333), wk =   0.0277778
        k(   68) = (   0.6666667  -0.1666667   1.0000000), wk =   0.0277778
        k(   69) = (   0.5833333  -0.0833333   0.9166667), wk =   0.0555556
        k(   70) = (   0.5000000   0.0000000   0.8333333), wk =   0.0277778
        k(   71) = (  -0.3333333  -1.0000000   0.0000000), wk =   0.0138889
        k(   72) = (  -0.5000000  -1.0000000   0.0000000), wk =   0.0069444

     Dense  grid:     4645 G-vectors     FFT dimensions: (  24,  24,  24)

     Estimated max dynamical RAM per process >       0.22MB

     Estimated total allocated dynamical RAM >       8.89MB
     Message from routine sym_rho_init:
     some processors have no G-vectors for symmetrization
     Message from routine sym_rho_init:
     some processors have no G-vectors for symmetrization
     Message from routine sym_rho_init:
     some processors have no G-vectors for symmetrization
     Message from routine sym_rho_init:
     some processors have no G-vectors for symmetrization
     Message from routine sym_rho_init:
     some processors have no G-vectors for symmetrization
     Message from routine sym_rho_init:
     some processors have no G-vectors for symmetrization

     Initial potential from superposition of free atoms

     starting charge    7.99993, renormalised to    8.00000
     Starting wfc are   18 randomized atomic wfcs

     total cpu time spent up to now is        0.4 secs

     per-process dynamical memory:    12.9 Mb

     Self-consistent Calculation

     iteration #  1     ecut=    60.00 Ry     beta=0.70
     Davidson diagonalization with overlap
     ethr =  1.00E-02,  avg # of iterations =  2.9

     total cpu time spent up to now is        1.3 secs

     total energy              =     -22.87694850 Ry
     Harris-Foulkes estimate   =     -22.94918879 Ry
     estimated scf accuracy    <       0.13665934 Ry

     iteration #  2     ecut=    60.00 Ry     beta=0.70
     Davidson diagonalization with overlap
     ethr =  1.71E-03,  avg # of iterations =  2.0

     total cpu time spent up to now is        1.9 secs

     total energy              =     -22.88866049 Ry
     Harris-Foulkes estimate   =     -22.88922401 Ry
     estimated scf accuracy    <       0.00192215 Ry

     iteration #  3     ecut=    60.00 Ry     beta=0.70
     Davidson diagonalization with overlap
     ethr =  2.40E-05,  avg # of iterations =  2.2

     total cpu time spent up to now is        2.7 secs

     total energy              =     -22.88891872 Ry
     Harris-Foulkes estimate   =     -22.88893887 Ry
     estimated scf accuracy    <       0.00008370 Ry

     iteration #  4     ecut=    60.00 Ry     beta=0.70
     Davidson diagonalization with overlap
     ethr =  1.05E-06,  avg # of iterations =  2.0

     total cpu time spent up to now is        3.3 secs

     total energy              =     -22.88892103 Ry
     Harris-Foulkes estimate   =     -22.88892178 Ry
     estimated scf accuracy    <       0.00000185 Ry

     iteration #  5     ecut=    60.00 Ry     beta=0.70
     Davidson diagonalization with overlap
     ethr =  2.31E-08,  avg # of iterations =  2.5

     total cpu time spent up to now is        4.1 secs

     total energy              =     -22.88892119 Ry
     Harris-Foulkes estimate   =     -22.88892119 Ry
     estimated scf accuracy    <          9.7E-10 Ry

     iteration #  6     ecut=    60.00 Ry     beta=0.70
     Davidson diagonalization with overlap
     ethr =  1.21E-11,  avg # of iterations =  3.6

     total cpu time spent up to now is        5.2 secs

     total energy              =     -22.88892120 Ry
     Harris-Foulkes estimate   =     -22.88892120 Ry
     estimated scf accuracy    <          1.6E-10 Ry

     iteration #  7     ecut=    60.00 Ry     beta=0.70
     Davidson diagonalization with overlap
     ethr =  2.03E-12,  avg # of iterations =  2.2

     total cpu time spent up to now is        5.9 secs

     total energy              =     -22.88892120 Ry
     Harris-Foulkes estimate   =     -22.88892120 Ry
     estimated scf accuracy    <          4.6E-13 Ry

     iteration #  8     ecut=    60.00 Ry     beta=0.70
     Davidson diagonalization with overlap
     ethr =  1.00E-13,  avg # of iterations =  1.7

     total cpu time spent up to now is        6.5 secs

     total energy              =     -22.88892120 Ry
     Harris-Foulkes estimate   =     -22.88892120 Ry
     estimated scf accuracy    <          7.2E-14 Ry

     iteration #  9     ecut=    60.00 Ry     beta=0.70
     Davidson diagonalization with overlap
     ethr =  1.00E-13,  avg # of iterations =  1.0

     total cpu time spent up to now is        6.9 secs

     total energy              =     -22.88892120 Ry
     Harris-Foulkes estimate   =     -22.88892120 Ry
     estimated scf accuracy    <          2.8E-15 Ry

     iteration # 10     ecut=    60.00 Ry     beta=0.70
     Davidson diagonalization with overlap
     ethr =  1.00E-13,  avg # of iterations =  1.0

     total cpu time spent up to now is        7.4 secs

     total energy              =     -22.88892120 Ry
     Harris-Foulkes estimate   =     -22.88892120 Ry
     estimated scf accuracy    <          1.6E-15 Ry

     iteration # 11     ecut=    60.00 Ry     beta=0.70
     Davidson diagonalization with overlap
     ethr =  1.00E-13,  avg # of iterations =  1.0

     total cpu time spent up to now is        7.8 secs

     End of self-consistent calculation

          k = 0.0000 0.0000 0.0000 (   561 PWs)   bands (ev):

    -8.0750  13.7392  13.7392  13.7392  19.4142  19.4142  19.4142  28.0754

          k =-0.0833 0.0833-0.0833 (   573 PWs)   bands (ev):

    -7.8765  12.4975  13.4048  13.4048  19.8516  19.8516  20.1768  28.1813

          k =-0.1667 0.1667-0.1667 (   570 PWs)   bands (ev):

    -7.2838   9.9356  12.6816  12.6816  20.7976  20.7976  21.3940  28.4889

          k =-0.2500 0.2500-0.2500 (   576 PWs)   bands (ev):

    -6.3049   7.0574  11.9381  11.9381  21.6710  21.6710  22.3146  28.9161

          k =-0.3333 0.3333-0.3333 (   589 PWs)   bands (ev):

    -4.9583   4.2221  11.3493  11.3493  22.1564  22.1564  22.8899  29.2992

          k =-0.4167 0.4167-0.4167 (   589 PWs)   bands (ev):

    -3.3045   1.6329  10.9812  10.9812  22.3054  22.3054  23.2008  29.5007

          k = 0.5000-0.5000 0.5000 (   580 PWs)   bands (ev):

    -1.9827  -0.0064  10.8567  10.8567  22.3234  22.3234  23.2991  29.5491

          k = 0.0000 0.1667 0.0000 (   565 PWs)   bands (ev):

    -7.8104  12.7925  12.7925  13.1540  19.2261  20.5850  20.5850  28.1078

          k =-0.0833 0.2500-0.0833 (   568 PWs)   bands (ev):

    -7.3494  10.8076  11.9632  12.8014  19.5374  21.6895  21.7490  28.0161

          k =-0.1667 0.3333-0.1667 (   575 PWs)   bands (ev):

    -6.4995   8.0825  11.2217  12.1179  20.4151  22.6561  22.7466  27.9905

          k =-0.2500 0.4167-0.2500 (   580 PWs)   bands (ev):

    -5.2746   5.2612  10.7033  11.3485  21.2058  23.1589  23.3905  28.3064

          k =-0.3333 0.5000-0.3333 (   585 PWs)   bands (ev):

    -3.7138   2.5954  10.4576  10.6862  21.6596  23.1951  23.7480  28.9684

          k = 0.5833-0.4167 0.5833 (   579 PWs)   bands (ev):

    -2.0644   0.4287  10.2206  10.4940  21.9477  22.9819  23.8872  29.5066

          k = 0.5000-0.3333 0.5000 (   577 PWs)   bands (ev):

    -2.5687   1.0388   9.9996  10.7986  22.2460  22.6822  23.8302  29.5500

          k = 0.4167-0.2500 0.4167 (   581 PWs)   bands (ev):

    -4.2668   3.4593  10.0504  11.3389  22.2813  22.5230  23.5540  29.1235

          k = 0.3333-0.1667 0.3333 (   580 PWs)   bands (ev):

    -5.7234   6.2027  10.3831  12.0556  21.6386  22.5447  22.9818  28.6016

          k = 0.2500-0.0833 0.2500 (   570 PWs)   bands (ev):

    -6.8254   9.0270  10.9870  12.8299  20.7385  21.9409  22.1640  28.3369

          k = 0.1667-0.0000 0.1667 (   565 PWs)   bands (ev):

    -7.5468  11.4857  11.9353  13.4062  19.9476  20.8037  21.1683  28.2509

          k = 0.0000 0.3333 0.0000 (   572 PWs)   bands (ev):

    -7.0212  11.0744  11.0744  11.5801  18.7777  22.9580  22.9580  26.9980

          k =-0.0833 0.4167-0.0833 (   576 PWs)   bands (ev):

    -6.3035   9.0306  10.3002  11.0783  19.0524  24.1221  24.1269  26.0225

          k =-0.1667 0.5000-0.1667 (   579 PWs)   bands (ev):

    -5.2077   6.4335   9.7747  10.2951  19.8942  24.8297  24.8929  25.7932

          k =-0.2500 0.5833-0.2500 (   583 PWs)   bands (ev):

    -3.7623   3.8223   9.4234   9.5521  20.5570  24.9555  25.3265  26.6724

          k = 0.6667-0.3333 0.6667 (   574 PWs)   bands (ev):

    -2.0858   1.4830   8.6806   9.6449  20.9737  24.6692  25.5180  28.2744

          k = 0.5833-0.2500 0.5833 (   576 PWs)   bands (ev):

    -1.6024   0.9121   8.1739  10.0376  21.4219  24.1656  25.5025  29.4703

          k = 0.5000-0.1667 0.5000 (   583 PWs)   bands (ev):

    -3.2217   3.0312   7.9603  10.6867  21.9847  23.4896  25.2542  29.0429

          k = 0.4167-0.0833 0.4167 (   576 PWs)   bands (ev):

    -4.7655   5.6080   8.0802  11.5056  22.5076  22.5758  24.5781  28.1615

          k = 0.3333 0.0000 0.3333 (   572 PWs)   bands (ev):

    -5.9807   8.0197   8.7883  12.3247  21.5091  22.6465  23.3403  27.9903

          k = 0.0000 0.5000 0.0000 (   576 PWs)   bands (ev):

    -5.7194   9.3258   9.4753   9.4753  18.3055  24.2294  25.5921  25.5921

          k =-0.0833 0.5833-0.0833 (   576 PWs)   bands (ev):

    -4.7567   7.3155   8.8978   8.9110  18.6410  23.2637  26.6391  26.6737

          k =-0.1667 0.6667-0.1667 (   583 PWs)   bands (ev):

    -3.4383   5.0513   7.8881   8.6331  19.4278  23.6044  27.0345  27.2880

          k = 0.7500-0.2500 0.7500 (   579 PWs)   bands (ev):

    -1.8361   2.8095   6.8748   8.7017  19.9414  25.3890  26.8313  27.5549

          k = 0.6667-0.1667 0.6667 (   578 PWs)   bands (ev):

    -0.6213   1.3974   6.1028   9.0938  20.4163  26.2082  27.5756  27.8618

          k = 0.5833-0.0833 0.5833 (   579 PWs)   bands (ev):

    -1.8693   2.9398   5.6715   9.7677  21.0693  25.2451  27.4231  29.0579

          k = 0.5000 0.0000 0.5000 (   574 PWs)   bands (ev):

    -3.4563   5.0026   5.9104  10.6327  21.8554  23.9584  26.4369  28.1826

          k = 0.0000 0.6667 0.0000 (   576 PWs)   bands (ev):

    -3.9291   6.6362   8.2500   8.2500  18.0199  21.6088  28.1192  28.1192

          k =-0.0833 0.7500-0.0833 (   583 PWs)   bands (ev):

    -2.7440   5.1021   7.3156   7.9122  18.4741  21.0940  28.9158  29.0078

          k = 0.8333-0.1667 0.8333 (   576 PWs)   bands (ev):

    -1.2523   3.5347   5.8234   7.9148  19.1231  22.2549  28.9213  29.3972

          k = 0.7500-0.0833 0.7500 (   578 PWs)   bands (ev):

     0.2395   2.1600   4.5160   8.2555  19.5753  24.7886  28.2332  29.4702

          k = 0.6667-0.0000 0.6667 (   572 PWs)   bands (ev):

    -0.3461   2.7517   4.0265   8.9004  20.2102  26.9574  27.6433  29.2532

          k = 0.0000 0.8333 0.0000 (   576 PWs)   bands (ev):

    -1.6945   3.7494   7.4896   7.4896  18.0773  19.7398  30.1400  30.1400

          k = 0.9167-0.0833 0.9167 (   584 PWs)   bands (ev):

    -0.3292   2.3694   6.6569   7.4069  18.6260  19.7603  30.4263  30.5854

          k = 0.8333 0.0000 0.8333 (   582 PWs)   bands (ev):

     1.0668   1.3719   5.1705   7.6705  19.0198  21.8049  29.7441  30.4143

          k = 0.0000-1.0000 0.0000 (   588 PWs)   bands (ev):

     0.9076   0.9076   7.2325   7.2325  18.6061  18.6061  30.9712  30.9712

          k =-0.1667 0.3333 0.0000 (   571 PWs)   bands (ev):

    -6.7599   9.7167  10.3086  12.3860  19.7873  22.7605  22.9152  27.4665

          k =-0.2500 0.4167-0.0833 (   576 PWs)   bands (ev):

    -5.7868   7.2864   9.4611  11.6985  20.6725  23.2929  24.0845  27.1645

          k =-0.3333 0.5000-0.1667 (   581 PWs)   bands (ev):

    -4.4500   4.5907   9.0730  10.8921  21.4972  23.3186  24.8601  27.6832

          k = 0.5833-0.4167 0.7500 (   580 PWs)   bands (ev):

    -2.8144   2.0770   8.9533  10.2283  21.9047  23.1599  25.2360  28.7980

          k = 0.5000-0.3333 0.6667 (   576 PWs)   bands (ev):

    -1.5238   0.4851   8.9651   9.9455  22.0048  23.0812  25.3451  29.4593

          k =-0.1667 0.5000 0.0000 (   576 PWs)   bands (ev):

    -5.4628   7.9865   8.7661  10.4534  19.3610  24.6699  25.1503  25.5861

          k =-0.2500 0.5833-0.0833 (   578 PWs)   bands (ev):

    -4.2547   5.7891   8.0343   9.6736  20.2895  24.4267  25.4844  26.7078

          k = 0.6667-0.3333 0.8333 (   571 PWs)   bands (ev):

    -2.7231   3.3686   7.6683   9.0101  20.9709  24.5896  26.3167  27.3464

          k = 0.5833-0.2500 0.7500 (   573 PWs)   bands (ev):

    -1.1332   1.3485   7.2646   8.9015  21.3843  24.3908  27.2855  28.2896

          k = 0.5000-0.1667 0.6667 (   577 PWs)   bands (ev):

    -1.6237   1.9462   6.9068   9.3321  21.8663  23.8902  27.1583  28.9127

          k = 0.4167-0.0833 0.5833 (   575 PWs)   bands (ev):

    -3.2714   4.2213   6.8072  10.0866  22.4472  23.0804  26.6989  27.6220

          k = 0.3333 0.0000 0.5000 (   582 PWs)   bands (ev):

    -4.7003   6.4424   7.3193  10.9704  21.7413  23.1650  25.6548  26.8405

          k =-0.1667 0.6667-0.0000 (   581 PWs)   bands (ev):

    -3.6823   6.1625   7.5854   8.3987  19.0871  22.4518  27.1352  28.1543

          k = 0.7500-0.2500 0.9167 (   576 PWs)   bands (ev):

    -2.2736   4.4277   6.5747   7.8375  20.0194  22.9465  27.1383  29.0022

          k = 0.6667-0.1667 0.8333 (   577 PWs)   bands (ev):

    -0.6667   2.5544   5.5925   7.8720  20.5467  24.9407  26.8557  29.0854

          k = 0.5833-0.0833 0.7500 (   576 PWs)   bands (ev):

    -0.2685   2.1818   4.8899   8.3544  21.0640  25.8751  27.7700  28.5281

          k = 0.5000 0.0000 0.6667 (   571 PWs)   bands (ev):

    -1.7923   3.8099   4.8799   9.1451  21.7730  24.6278  27.7576  28.5167

          k = 0.8333-0.1667 1.0000 (   581 PWs)   bands (ev):

    -1.4683   3.7709   6.8737   7.1286  19.1329  20.6922  29.1781  30.0669

          k = 0.7500-0.0833 0.9167 (   582 PWs)   bands (ev):

     0.0593   2.5181   5.4267   7.1082  19.9225  22.0059  28.9477  30.0213

          k = 0.6667 0.0000 0.8333 (   580 PWs)   bands (ev):

     0.9153   2.0007   4.1601   7.5713  20.3878  24.7381  27.9989  29.2332

          k =-0.1667-1.0000-0.0000 (   582 PWs)   bands (ev):

     1.0827   1.0827   6.6934   6.6934  19.6261  19.6261  30.4470  30.4470

          k = 0.6667-0.3333 1.0000 (   574 PWs)   bands (ev):

    -2.9537   5.0509   6.2079   8.7846  21.6201  23.7523  25.7089  28.2739

          k = 0.5833-0.2500 0.9167 (   574 PWs)   bands (ev):

    -1.3813   3.2041   5.7745   7.9485  22.5236  23.8470  26.4272  28.9549

          k = 0.5000-0.1667 0.8333 (   574 PWs)   bands (ev):

    -0.1764   1.8028   5.7769   7.5919  22.5770  24.1076  27.9562  28.1338

          k = 0.6667-0.1667 1.0000 (   572 PWs)   bands (ev):

    -0.8181   3.5785   5.5960   6.6848  21.6933  22.9218  26.8879  29.6276

          k = 0.5833-0.0833 0.9167 (   581 PWs)   bands (ev):

     0.6474   2.4145   4.7690   6.3884  22.4689  24.6645  26.6346  28.3439

          k = 0.5000 0.0000 0.8333 (   574 PWs)   bands (ev):

     0.1238   2.8582   4.4586   6.9556  22.8955  24.8069  26.8625  27.9707

          k =-0.3333-1.0000 0.0000 (   584 PWs)   bands (ev):

     1.5171   1.5171   5.6393   5.6393  22.1076  22.1076  28.6645  28.6645

          k =-0.5000-1.0000 0.0000 (   560 PWs)   bands (ev):

     1.8100   1.8100   5.0767   5.0767  24.4108  24.4108  26.5739  26.5739

     highest occupied, lowest unoccupied level (ev):    13.7392   18.0199

!    total energy              =     -22.88892120 Ry
     Harris-Foulkes estimate   =     -22.88892120 Ry
     estimated scf accuracy    <          9.6E-17 Ry

     The total energy is the sum of the following terms:

     one-electron contribution =       8.28881180 Ry
     hartree contribution      =       1.88370251 Ry
     xc contribution           =      -7.13716127 Ry
     ewald contribution        =     -25.92427424 Ry

     convergence has been achieved in  11 iterations

     Writing output data file c.save
 
     init_run     :      0.32s CPU      0.36s WALL (       1 calls)
     electrons    :      6.96s CPU      7.41s WALL (       1 calls)

     Called by init_run:
     wfcinit      :      0.30s CPU      0.32s WALL (       1 calls)
     potinit      :      0.00s CPU      0.00s WALL (       1 calls)

     Called by electrons:
     c_bands      :      6.77s CPU      7.18s WALL (      11 calls)
     sum_band     :      0.18s CPU      0.21s WALL (      11 calls)
     v_of_rho     :      0.00s CPU      0.00s WALL (      12 calls)
     mix_rho      :      0.00s CPU      0.00s WALL (      11 calls)

     Called by c_bands:
     init_us_2    :      0.01s CPU      0.01s WALL (    1656 calls)
     cegterg      :      6.71s CPU      7.11s WALL (     792 calls)

     Called by sum_band:

     Called by *egterg:
     h_psi        :      1.19s CPU      1.27s WALL (    2458 calls)
     g_psi        :      0.00s CPU      0.00s WALL (    1594 calls)
     cdiaghg      :      3.81s CPU      4.00s WALL (    2386 calls)

     Called by h_psi:
     h_psi:pot    :      1.18s CPU      1.27s WALL (    2458 calls)
     h_psi:calbec :      0.06s CPU      0.06s WALL (    2458 calls)
     vloc_psi     :      1.09s CPU      1.17s WALL (    2458 calls)
     add_vuspsi   :      0.02s CPU      0.02s WALL (    2458 calls)

     General routines
     calbec       :      0.05s CPU      0.06s WALL (    2458 calls)
     fft          :      0.01s CPU      0.01s WALL (      47 calls)
     fftw         :      1.19s CPU      1.29s WALL (   40150 calls)
 
     Parallel routines
     fft_scatter  :      0.96s CPU      1.05s WALL (   40197 calls)
 
     PWSCF        :     7.57s CPU         8.39s WALL

 
   This run was terminated on:  19:57:47  31Jan2021            

=------------------------------------------------------------------------------=
   JOB DONE.
=------------------------------------------------------------------------------=
