
     Program PHONON v.6.1 (svn rev. 13369) starts on 17Dec2020 at 12:22:13 

     This program is part of the open-source Quantum ESPRESSO suite
     for quantum simulation of materials; please cite
         "P. Giannozzi et al., J. Phys.:Condens. Matter 21 395502 (2009);
          URL http://www.quantum-espresso.org", 
     in publications or presentations arising from this work. More details at
     http://www.quantum-espresso.org/quote

     Parallel version (MPI & OpenMP), running on      40 processor cores
     Number of MPI processes:                40
     Threads/MPI process:                     1
     R & G space division:  proc/nbgrp/npool/nimage =      40

     Reading data from directory:
     ./c.save

   Info: using nr1, nr2, nr3 values from input

   Info: using nr1, nr2, nr3 values from input

     IMPORTANT: XC functional enforced from input :
     Exchange-correlation      = PZ ( 1  1  0  0 0 0)
     Any further DFT definition will be discarded
     Please, verify this is what you really want

               file C.pz-mt.fhi.UPF: wavefunction(s)  3d renormalized
 
     Parallelization info
     --------------------
     sticks:   dense  smooth     PW     G-vecs:    dense   smooth      PW
     Min          15      15      4                  251      251      40
     Max          16      16      5                  253      253      43
     Sum         613     613    187                10081    10081    1639
 


     Dynamical matrices for ( 3, 3, 3)  uniform grid of q-points
     (   4q-points):
       N         xq(1)         xq(2)         xq(3) 
       1   0.000000000   0.000000000   0.000000000
       2  -0.333333333   0.333333333  -0.333333333
       3   0.000000000   0.666666667   0.000000000
       4   0.666666667  -0.000000000   0.666666667

     Calculation of q =    0.0000000   0.0000000   0.0000000

                                                                                

     bravais-lattice index     =            2
     lattice parameter (alat)  =       6.7034  a.u.
     unit-cell volume          =      75.3061 (a.u.)^3
     number of atoms/cell      =            2
     number of atomic types    =            1
     kinetic-energy cut-off    =     100.0000  Ry
     charge density cut-off    =     400.0000  Ry
     convergence threshold     =      1.0E-24
     beta                      =       0.7000
     number of iterations used =            4
     Exchange-correlation      = PZ ( 1  1  0  0 0 0)


     celldm(1)=    6.70343  celldm(2)=    0.00000  celldm(3)=    0.00000
     celldm(4)=    0.00000  celldm(5)=    0.00000  celldm(6)=    0.00000

     crystal axes: (cart. coord. in units of alat)
               a(1) = ( -0.5000  0.0000  0.5000 )  
               a(2) = (  0.0000  0.5000  0.5000 )  
               a(3) = ( -0.5000  0.5000  0.0000 )  

     reciprocal axes: (cart. coord. in units 2 pi/alat)
               b(1) = ( -1.0000 -1.0000  1.0000 )  
               b(2) = (  1.0000  1.0000  1.0000 )  
               b(3) = ( -1.0000  1.0000 -1.0000 )  


     Atoms inside the unit cell: 

     Cartesian axes

     site n.  atom      mass           positions (alat units)
        1     C   12.0110   tau(    1) = (    0.00000    0.00000    0.00000  )
        2     C   12.0110   tau(    2) = (   -0.25000    0.25000    0.25000  )

     Computing dynamical matrix for 
                    q = (   0.0000000   0.0000000   0.0000000 )
 
     49 Sym.Ops. (with q -> -q+G )


     G cutoff =  455.2960  (    252 G-vectors)     FFT grid: ( 32, 32, 32)
     number of k points=     4

     PseudoPot. # 1 for  C read from file:
     ../C.pz-mt.fhi.UPF
     MD5 check sum: b7c38bc33a0cf75f44be89b84470f298
     Pseudo is Norm-conserving, Zval =  4.0
     Generated using FHI98PP, converted with fhi2upf.x v.5.0.2
     Using radial grid of  461 points,  2 beta functions with: 
                l(1) =   0
                l(2) =   1

     Mode symmetry, O_h (m-3m)  point group:


     Electric field:
     Dielectric constant
     Born effective charges in two ways 


     Atomic displacements:
     There are   2 irreducible representations

     Representation     1      3 modes -T_2g G_25' G_5+  To be done

     Representation     2      3 modes -T_1u G_15  G_4-  To be done



     Alpha used in Ewald sum =   2.8000
     PHONON       :     0.48s CPU         0.96s WALL


     Electric Fields Calculation

      iter #   1 total cpu time :     1.4 secs   av.it.:   5.6
      thresh= 1.000E-02 alpha_mix =  0.700 |ddv_scf|^2 =  1.430E-08

      iter #   2 total cpu time :     1.7 secs   av.it.:   9.5
      thresh= 1.196E-05 alpha_mix =  0.700 |ddv_scf|^2 =  1.574E-10

      iter #   3 total cpu time :     1.9 secs   av.it.:   9.3
      thresh= 1.255E-06 alpha_mix =  0.700 |ddv_scf|^2 =  8.446E-12

      iter #   4 total cpu time :     2.1 secs   av.it.:   9.6
      thresh= 2.906E-07 alpha_mix =  0.700 |ddv_scf|^2 =  1.315E-14

      iter #   5 total cpu time :     2.2 secs   av.it.:   9.3
      thresh= 1.147E-08 alpha_mix =  0.700 |ddv_scf|^2 =  4.522E-18

      iter #   6 total cpu time :     2.4 secs   av.it.:   9.2
      thresh= 2.126E-10 alpha_mix =  0.700 |ddv_scf|^2 =  1.809E-20

      iter #   7 total cpu time :     2.5 secs   av.it.:   9.3
      thresh= 1.345E-11 alpha_mix =  0.700 |ddv_scf|^2 =  2.161E-23

      iter #   8 total cpu time :     2.6 secs   av.it.:   9.0
      thresh= 4.649E-13 alpha_mix =  0.700 |ddv_scf|^2 =  9.047E-26

     End of electric fields calculation

          Dielectric constant in cartesian axis 

          (       9.272571960      -0.000000000       0.000000000 )
          (      -0.000000000       9.272571960       0.000000000 )
          (      -0.000000000       0.000000000       9.272571960 )

          Effective charges (d Force / dE) in cartesian axis

           atom      1   C  
      Ex  (       -0.89494       -0.00000        0.00000 )
      Ey  (       -0.00000       -0.89494        0.00000 )
      Ez  (        0.00000        0.00000       -0.89494 )
           atom      2   C  
      Ex  (       -0.89494        0.00000       -0.00000 )
      Ey  (        0.00000       -0.89494        0.00000 )
      Ez  (       -0.00000       -0.00000       -0.89494 )


     Representation #  1 modes #   1  2  3

     Self-consistent Calculation

      iter #   1 total cpu time :     2.9 secs   av.it.:   5.5
      thresh= 1.000E-02 alpha_mix =  0.700 |ddv_scf|^2 =  1.554E-07

      iter #   2 total cpu time :     3.3 secs   av.it.:   9.2
      thresh= 3.942E-05 alpha_mix =  0.700 |ddv_scf|^2 =  4.652E-10

      iter #   3 total cpu time :     3.5 secs   av.it.:   9.2
      thresh= 2.157E-06 alpha_mix =  0.700 |ddv_scf|^2 =  6.360E-12

      iter #   4 total cpu time :     3.7 secs   av.it.:   8.8
      thresh= 2.522E-07 alpha_mix =  0.700 |ddv_scf|^2 =  9.245E-15

      iter #   5 total cpu time :     3.9 secs   av.it.:   9.2
      thresh= 9.615E-09 alpha_mix =  0.700 |ddv_scf|^2 =  7.517E-18

      iter #   6 total cpu time :     4.1 secs   av.it.:   9.5
      thresh= 2.742E-10 alpha_mix =  0.700 |ddv_scf|^2 =  1.900E-19

      iter #   7 total cpu time :     4.3 secs   av.it.:   9.6
      thresh= 4.358E-11 alpha_mix =  0.700 |ddv_scf|^2 =  1.740E-22

      iter #   8 total cpu time :     4.4 secs   av.it.:   9.2
      thresh= 1.319E-12 alpha_mix =  0.700 |ddv_scf|^2 =  1.327E-23

      iter #   9 total cpu time :     4.6 secs   av.it.:   9.3
      thresh= 3.643E-13 alpha_mix =  0.700 |ddv_scf|^2 =  3.485E-27

     End of self-consistent calculation

     Convergence has been achieved 


     Representation #  2 modes #   4  5  6

     Self-consistent Calculation

      iter #   1 total cpu time :     4.8 secs   av.it.:   6.5
      thresh= 1.000E-02 alpha_mix =  0.700 |ddv_scf|^2 =  1.074E-07

      iter #   2 total cpu time :     5.3 secs   av.it.:   9.9
      thresh= 3.277E-05 alpha_mix =  0.700 |ddv_scf|^2 =  1.151E-10

      iter #   3 total cpu time :     5.6 secs   av.it.:   9.4
      thresh= 1.073E-06 alpha_mix =  0.700 |ddv_scf|^2 =  9.952E-12

      iter #   4 total cpu time :     5.9 secs   av.it.:   9.4
      thresh= 3.155E-07 alpha_mix =  0.700 |ddv_scf|^2 =  7.862E-15

      iter #   5 total cpu time :     6.2 secs   av.it.:  10.2
      thresh= 8.867E-09 alpha_mix =  0.700 |ddv_scf|^2 =  1.975E-18

      iter #   6 total cpu time :     6.4 secs   av.it.:  10.2
      thresh= 1.405E-10 alpha_mix =  0.700 |ddv_scf|^2 =  6.357E-20

      iter #   7 total cpu time :     7.1 secs   av.it.:   9.2
      thresh= 2.521E-11 alpha_mix =  0.700 |ddv_scf|^2 =  3.423E-24

      iter #   8 total cpu time :     7.3 secs   av.it.:   8.4
      thresh= 1.850E-13 alpha_mix =  0.700 |ddv_scf|^2 =  3.271E-25

     End of self-consistent calculation

     Convergence has been achieved 
 
     Number of q in the star =    1
     List of q in the star:
          1   0.000000000   0.000000000   0.000000000

          Dielectric constant in cartesian axis 

          (       9.272571960      -0.000000000       0.000000000 )
          (      -0.000000000       9.272571960       0.000000000 )
          (      -0.000000000       0.000000000       9.272571960 )

          Effective charges (d Force / dE) in cartesian axis

           atom      1   C  
      Ex  (       -0.89494       -0.00000        0.00000 )
      Ey  (       -0.00000       -0.89494        0.00000 )
      Ez  (        0.00000        0.00000       -0.89494 )
           atom      2   C  
      Ex  (       -0.89494        0.00000       -0.00000 )
      Ey  (        0.00000       -0.89494        0.00000 )
      Ez  (       -0.00000       -0.00000       -0.89494 )

          Effective charges (d P / du) in cartesian axis 

           atom      1   C  
      Px  (       -0.89494        0.00000       -0.00000 )
      Py  (        0.00000       -0.89494       -0.00000 )
      Pz  (       -0.00000        0.00000       -0.89494 )
           atom      2   C  
      Px  (       -0.89494        0.00000       -0.00000 )
      Py  (        0.00000       -0.89494       -0.00000 )
      Pz  (        0.00000       -0.00000       -0.89494 )

     Diagonalizing the dynamical matrix

     q = (    0.000000000   0.000000000   0.000000000 ) 

 **************************************************************************
     freq (    1) =      -9.354292 [THz] =    -312.025593 [cm-1]
     freq (    2) =      -9.354292 [THz] =    -312.025593 [cm-1]
     freq (    3) =      -9.354292 [THz] =    -312.025593 [cm-1]
     freq (    4) =      40.501391 [THz] =    1350.980976 [cm-1]
     freq (    5) =      40.501391 [THz] =    1350.980976 [cm-1]
     freq (    6) =      40.501391 [THz] =    1350.980976 [cm-1]
 **************************************************************************

     Mode symmetry, O_h (m-3m)  point group:

     freq (  1 -  3) =       -312.0  [cm-1]   --> T_1u G_15  G_4- I  
     freq (  4 -  6) =       1351.0  [cm-1]   --> T_2g G_25' G_5+ R  

     Calculation of q =   -0.3333333   0.3333333  -0.3333333

   Info: using nr1, nr2, nr3 values from input

   Info: using nr1, nr2, nr3 values from input
 
     Parallelization info
     --------------------
     sticks:   dense  smooth     PW     G-vecs:    dense   smooth      PW
     Min          15      15      4                  251      251      43
     Max          16      16      5                  253      253      47
     Sum         613     613    199                10081    10081    1837
 


     bravais-lattice index     =            2
     lattice parameter (alat)  =       6.7034  a.u.
     unit-cell volume          =      75.3061 (a.u.)^3
     number of atoms/cell      =            2
     number of atomic types    =            1
     number of electrons       =         8.00
     number of Kohn-Sham states=            8
     kinetic-energy cutoff     =     100.0000  Ry
     charge density cutoff     =     400.0000  Ry
     Exchange-correlation      = PZ ( 1  1  0  0 0 0)

     celldm(1)=   6.703426  celldm(2)=   0.000000  celldm(3)=   0.000000
     celldm(4)=   0.000000  celldm(5)=   0.000000  celldm(6)=   0.000000

     crystal axes: (cart. coord. in units of alat)
               a(1) = (  -0.500000   0.000000   0.500000 )  
               a(2) = (   0.000000   0.500000   0.500000 )  
               a(3) = (  -0.500000   0.500000   0.000000 )  

     reciprocal axes: (cart. coord. in units 2 pi/alat)
               b(1) = ( -1.000000 -1.000000  1.000000 )  
               b(2) = (  1.000000  1.000000  1.000000 )  
               b(3) = ( -1.000000  1.000000 -1.000000 )  


     PseudoPot. # 1 for  C read from file:
     ../C.pz-mt.fhi.UPF
     MD5 check sum: b7c38bc33a0cf75f44be89b84470f298
     Pseudo is Norm-conserving, Zval =  4.0
     Generated using FHI98PP, converted with fhi2upf.x v.5.0.2
     Using radial grid of  461 points,  2 beta functions with: 
                l(1) =   0
                l(2) =   1

     atomic species   valence    mass     pseudopotential
        C              4.00    12.01100      C( 1.00)

     48 Sym. Ops., with inversion, found



   Cartesian axes

     site n.     atom                  positions (alat units)
         1           C   tau(   1) = (   0.0000000   0.0000000   0.0000000  )
         2           C   tau(   2) = (  -0.2500000   0.2500000   0.2500000  )

     number of k points=    20
                       cart. coord. in units 2pi/alat
        k(    1) = (   0.0000000   0.0000000   0.0000000), wk =   0.0740741
        k(    2) = (  -0.3333333   0.3333333  -0.3333333), wk =   0.0000000
        k(    3) = (  -0.3333333   0.3333333  -0.3333333), wk =   0.0740741
        k(    4) = (  -0.6666667   0.6666667  -0.6666667), wk =   0.0000000
        k(    5) = (   0.0000000   0.6666667   0.0000000), wk =   0.2222222
        k(    6) = (  -0.3333333   1.0000000  -0.3333333), wk =   0.0000000
        k(    7) = (   0.6666667  -0.0000000   0.6666667), wk =   0.2222222
        k(    8) = (   0.3333333   0.3333333   0.3333333), wk =   0.0000000
        k(    9) = (   0.3333333   0.3333333  -0.3333333), wk =   0.2222222
        k(   10) = (   0.0000000   0.6666667  -0.6666667), wk =   0.0000000
        k(   11) = (   0.3333333   0.3333333   0.3333333), wk =   0.2222222
        k(   12) = (   0.0000000   0.6666667   0.0000000), wk =   0.0000000
        k(   13) = (   0.3333333  -0.3333333   0.3333333), wk =   0.0740741
        k(   14) = (   0.0000000   0.0000000   0.0000000), wk =   0.0000000
        k(   15) = (   0.0000000  -0.6666667   0.0000000), wk =   0.2222222
        k(   16) = (  -0.3333333  -0.3333333  -0.3333333), wk =   0.0000000
        k(   17) = (  -0.6666667   0.0000000   0.6666667), wk =   0.4444444
        k(   18) = (  -1.0000000   0.3333333   0.3333333), wk =   0.0000000
        k(   19) = (  -0.6666667   0.0000000  -0.6666667), wk =   0.2222222
        k(   20) = (  -1.0000000   0.3333333  -1.0000000), wk =   0.0000000

     Dense  grid:    10081 G-vectors     FFT dimensions: (  32,  32,  32)

     Estimated max dynamical RAM per process >       0.35MB

     Estimated total allocated dynamical RAM >      13.84MB

     The potential is recalculated from file :
     ./_ph0/c.q_2/c.save/charge-density.dat

     Starting wfc are   18 atomic wfcs

     Band Structure Calculation
     Davidson diagonalization with overlap

     ethr =  1.25E-10,  avg # of iterations =  9.2

     total cpu time spent up to now is        0.3 secs

     End of band structure calculation

          k = 0.0000 0.0000 0.0000 (  1243 PWs)   bands (ev):

    -8.1912  13.2945  13.2945  13.2945  18.8995  18.8995  18.8995  27.0688

          k =-0.3333 0.3333-0.3333 (  1272 PWs)   bands (ev):

    -5.1280   3.9401  10.9588  10.9588  21.5941  21.5941  22.1570  28.5469

          k =-0.3333 0.3333-0.3333 (  1272 PWs)   bands (ev):

    -5.1280   3.9401  10.9588  10.9588  21.5941  21.5941  22.1570  28.5469

          k =-0.6667 0.6667-0.6667 (  1272 PWs)   bands (ev):

    -5.1280   3.9401  10.9588  10.9588  21.5941  21.5941  22.1570  28.5469

          k = 0.0000 0.6667 0.0000 (  1267 PWs)   bands (ev):

    -4.1148   6.2603   7.9331   7.9331  17.5104  21.0738  27.3835  27.3835

          k =-0.3333 1.0000-0.3333 (  1276 PWs)   bands (ev):

    -0.6170   2.4566   3.8024   8.5672  19.6843  26.2615  26.9141  28.4183

          k = 0.6667-0.0000 0.6667 (  1276 PWs)   bands (ev):

    -0.6170   2.4566   3.8024   8.5672  19.6843  26.2615  26.9141  28.4183

          k = 0.3333 0.3333 0.3333 (  1272 PWs)   bands (ev):

    -5.1280   3.9401  10.9588  10.9588  21.5941  21.5941  22.1570  28.5469

          k = 0.3333 0.3333-0.3333 (  1272 PWs)   bands (ev):

    -5.1280   3.9401  10.9588  10.9588  21.5941  21.5941  22.1570  28.5469

          k = 0.0000 0.6667-0.6667 (  1276 PWs)   bands (ev):

    -0.6170   2.4566   3.8024   8.5672  19.6843  26.2615  26.9141  28.4183

          k = 0.3333 0.3333 0.3333 (  1272 PWs)   bands (ev):

    -5.1280   3.9401  10.9588  10.9588  21.5941  21.5941  22.1570  28.5469

          k = 0.0000 0.6667 0.0000 (  1267 PWs)   bands (ev):

    -4.1148   6.2603   7.9331   7.9331  17.5104  21.0738  27.3835  27.3835

          k = 0.3333-0.3333 0.3333 (  1272 PWs)   bands (ev):

    -5.1280   3.9401  10.9588  10.9588  21.5941  21.5941  22.1570  28.5469

          k = 0.0000 0.0000 0.0000 (  1243 PWs)   bands (ev):

    -8.1912  13.2945  13.2945  13.2945  18.8995  18.8995  18.8995  27.0688

          k = 0.0000-0.6667 0.0000 (  1267 PWs)   bands (ev):

    -4.1148   6.2603   7.9331   7.9331  17.5104  21.0738  27.3835  27.3835

          k =-0.3333-0.3333-0.3333 (  1272 PWs)   bands (ev):

    -5.1280   3.9401  10.9588  10.9588  21.5941  21.5941  22.1570  28.5469

          k =-0.6667 0.0000 0.6667 (  1276 PWs)   bands (ev):

    -0.6170   2.4566   3.8024   8.5672  19.6843  26.2615  26.9141  28.4183

          k =-1.0000 0.3333 0.3333 (  1276 PWs)   bands (ev):

    -0.6170   2.4566   3.8024   8.5672  19.6843  26.2615  26.9141  28.4183

          k =-0.6667 0.0000-0.6667 (  1276 PWs)   bands (ev):

    -0.6170   2.4566   3.8024   8.5672  19.6843  26.2615  26.9141  28.4183

          k =-1.0000 0.3333-1.0000 (  1267 PWs)   bands (ev):

    -4.1148   6.2603   7.9331   7.9331  17.5104  21.0738  27.3835  27.3835

     highest occupied, lowest unoccupied level (ev):    13.2945   17.5104

     Writing output data file c.save

                                                                                

     bravais-lattice index     =            2
     lattice parameter (alat)  =       6.7034  a.u.
     unit-cell volume          =      75.3061 (a.u.)^3
     number of atoms/cell      =            2
     number of atomic types    =            1
     kinetic-energy cut-off    =     100.0000  Ry
     charge density cut-off    =     400.0000  Ry
     convergence threshold     =      1.0E-24
     beta                      =       0.7000
     number of iterations used =            4
     Exchange-correlation      = PZ ( 1  1  0  0 0 0)


     celldm(1)=    6.70343  celldm(2)=    0.00000  celldm(3)=    0.00000
     celldm(4)=    0.00000  celldm(5)=    0.00000  celldm(6)=    0.00000

     crystal axes: (cart. coord. in units of alat)
               a(1) = ( -0.5000  0.0000  0.5000 )  
               a(2) = (  0.0000  0.5000  0.5000 )  
               a(3) = ( -0.5000  0.5000  0.0000 )  

     reciprocal axes: (cart. coord. in units 2 pi/alat)
               b(1) = ( -1.0000 -1.0000  1.0000 )  
               b(2) = (  1.0000  1.0000  1.0000 )  
               b(3) = ( -1.0000  1.0000 -1.0000 )  


     Atoms inside the unit cell: 

     Cartesian axes

     site n.  atom      mass           positions (alat units)
        1     C   12.0110   tau(    1) = (    0.00000    0.00000    0.00000  )
        2     C   12.0110   tau(    2) = (   -0.25000    0.25000    0.25000  )

     Computing dynamical matrix for 
                    q = (  -0.3333333   0.3333333  -0.3333333 )
 
      6 Sym.Ops. (no q -> -q+G )


     G cutoff =  455.2960  (    252 G-vectors)     FFT grid: ( 32, 32, 32)
     number of k points=    20

     PseudoPot. # 1 for  C read from file:
     ../C.pz-mt.fhi.UPF
     MD5 check sum: b7c38bc33a0cf75f44be89b84470f298
     Pseudo is Norm-conserving, Zval =  4.0
     Generated using FHI98PP, converted with fhi2upf.x v.5.0.2
     Using radial grid of  461 points,  2 beta functions with: 
                l(1) =   0
                l(2) =   1

     Mode symmetry, C_3v (3m)   point group:


     Atomic displacements:
     There are   4 irreducible representations

     Representation     1      1 modes -A_1  L_1  To be done

     Representation     2      1 modes -A_1  L_1  To be done

     Representation     3      2 modes -E    L_3  To be done

     Representation     4      2 modes -E    L_3  To be done



     Alpha used in Ewald sum =   2.8000
     PHONON       :     6.09s CPU         7.83s WALL



     Representation #  1 mode #   1

     Self-consistent Calculation

      iter #   1 total cpu time :     8.0 secs   av.it.:   6.7
      thresh= 1.000E-02 alpha_mix =  0.700 |ddv_scf|^2 =  2.750E-04

      iter #   2 total cpu time :     8.3 secs   av.it.:   8.5
      thresh= 1.658E-03 alpha_mix =  0.700 |ddv_scf|^2 =  6.170E-04

      iter #   3 total cpu time :     8.4 secs   av.it.:   7.4
      thresh= 2.484E-03 alpha_mix =  0.700 |ddv_scf|^2 =  1.651E-07

      iter #   4 total cpu time :     8.4 secs   av.it.:   9.0
      thresh= 4.064E-05 alpha_mix =  0.700 |ddv_scf|^2 =  1.128E-08

      iter #   5 total cpu time :     8.5 secs   av.it.:   8.6
      thresh= 1.062E-05 alpha_mix =  0.700 |ddv_scf|^2 =  7.535E-11

      iter #   6 total cpu time :     8.6 secs   av.it.:   9.0
      thresh= 8.680E-07 alpha_mix =  0.700 |ddv_scf|^2 =  4.998E-12

      iter #   7 total cpu time :     8.6 secs   av.it.:   8.5
      thresh= 2.236E-07 alpha_mix =  0.700 |ddv_scf|^2 =  3.016E-12

      iter #   8 total cpu time :     8.7 secs   av.it.:   7.9
      thresh= 1.737E-07 alpha_mix =  0.700 |ddv_scf|^2 =  9.132E-14

      iter #   9 total cpu time :     8.7 secs   av.it.:   8.8
      thresh= 3.022E-08 alpha_mix =  0.700 |ddv_scf|^2 =  2.872E-14

      iter #  10 total cpu time :     8.8 secs   av.it.:   8.7
      thresh= 1.695E-08 alpha_mix =  0.700 |ddv_scf|^2 =  1.691E-14

      iter #  11 total cpu time :     8.8 secs   av.it.:   8.3
      thresh= 1.300E-08 alpha_mix =  0.700 |ddv_scf|^2 =  4.325E-17

      iter #  12 total cpu time :     8.9 secs   av.it.:   8.7
      thresh= 6.576E-10 alpha_mix =  0.700 |ddv_scf|^2 =  5.984E-18

      iter #  13 total cpu time :     8.9 secs   av.it.:   8.7
      thresh= 2.446E-10 alpha_mix =  0.700 |ddv_scf|^2 =  4.549E-19

      iter #  14 total cpu time :     9.0 secs   av.it.:   8.8
      thresh= 6.745E-11 alpha_mix =  0.700 |ddv_scf|^2 =  5.850E-20

      iter #  15 total cpu time :     9.0 secs   av.it.:   8.5
      thresh= 2.419E-11 alpha_mix =  0.700 |ddv_scf|^2 =  1.028E-21

      iter #  16 total cpu time :     9.1 secs   av.it.:   8.4
      thresh= 3.207E-12 alpha_mix =  0.700 |ddv_scf|^2 =  9.038E-24

      iter #  17 total cpu time :     9.1 secs   av.it.:   8.9
      thresh= 3.006E-13 alpha_mix =  0.700 |ddv_scf|^2 =  5.509E-25

     End of self-consistent calculation

     Convergence has been achieved 


     Representation #  2 mode #   2

     Self-consistent Calculation

      iter #   1 total cpu time :     9.2 secs   av.it.:   6.7
      thresh= 1.000E-02 alpha_mix =  0.700 |ddv_scf|^2 =  2.750E-04

      iter #   2 total cpu time :     9.4 secs   av.it.:   8.5
      thresh= 1.658E-03 alpha_mix =  0.700 |ddv_scf|^2 =  6.170E-04

      iter #   3 total cpu time :     9.5 secs   av.it.:   7.4
      thresh= 2.484E-03 alpha_mix =  0.700 |ddv_scf|^2 =  1.651E-07

      iter #   4 total cpu time :     9.6 secs   av.it.:   9.0
      thresh= 4.064E-05 alpha_mix =  0.700 |ddv_scf|^2 =  1.128E-08

      iter #   5 total cpu time :     9.7 secs   av.it.:   8.6
      thresh= 1.062E-05 alpha_mix =  0.700 |ddv_scf|^2 =  7.535E-11

      iter #   6 total cpu time :     9.8 secs   av.it.:   9.0
      thresh= 8.680E-07 alpha_mix =  0.700 |ddv_scf|^2 =  4.998E-12

      iter #   7 total cpu time :     9.8 secs   av.it.:   8.5
      thresh= 2.236E-07 alpha_mix =  0.700 |ddv_scf|^2 =  3.016E-12

      iter #   8 total cpu time :     9.9 secs   av.it.:   7.9
      thresh= 1.737E-07 alpha_mix =  0.700 |ddv_scf|^2 =  9.132E-14

      iter #   9 total cpu time :     9.9 secs   av.it.:   8.8
      thresh= 3.022E-08 alpha_mix =  0.700 |ddv_scf|^2 =  2.872E-14

      iter #  10 total cpu time :    10.0 secs   av.it.:   8.7
      thresh= 1.695E-08 alpha_mix =  0.700 |ddv_scf|^2 =  1.691E-14

      iter #  11 total cpu time :    10.0 secs   av.it.:   8.3
      thresh= 1.300E-08 alpha_mix =  0.700 |ddv_scf|^2 =  4.325E-17

      iter #  12 total cpu time :    10.1 secs   av.it.:   8.7
      thresh= 6.576E-10 alpha_mix =  0.700 |ddv_scf|^2 =  5.984E-18

      iter #  13 total cpu time :    10.1 secs   av.it.:   8.7
      thresh= 2.446E-10 alpha_mix =  0.700 |ddv_scf|^2 =  4.549E-19

      iter #  14 total cpu time :    10.2 secs   av.it.:   8.8
      thresh= 6.745E-11 alpha_mix =  0.700 |ddv_scf|^2 =  5.850E-20

      iter #  15 total cpu time :    10.2 secs   av.it.:   8.5
      thresh= 2.419E-11 alpha_mix =  0.700 |ddv_scf|^2 =  1.028E-21

      iter #  16 total cpu time :    10.3 secs   av.it.:   8.4
      thresh= 3.207E-12 alpha_mix =  0.700 |ddv_scf|^2 =  9.038E-24

      iter #  17 total cpu time :    10.3 secs   av.it.:   8.9
      thresh= 3.006E-13 alpha_mix =  0.700 |ddv_scf|^2 =  5.509E-25

     End of self-consistent calculation

     Convergence has been achieved 


     Representation #  3 modes #   3  4

     Self-consistent Calculation

      iter #   1 total cpu time :    10.4 secs   av.it.:   6.3
      thresh= 1.000E-02 alpha_mix =  0.700 |ddv_scf|^2 =  4.098E-07

      iter #   2 total cpu time :    12.0 secs   av.it.:   9.9
      thresh= 6.401E-05 alpha_mix =  0.700 |ddv_scf|^2 =  7.696E-10

      iter #   3 total cpu time :    13.3 secs   av.it.:   9.9
      thresh= 2.774E-06 alpha_mix =  0.700 |ddv_scf|^2 =  2.529E-11

      iter #   4 total cpu time :    14.2 secs   av.it.:   9.5
      thresh= 5.029E-07 alpha_mix =  0.700 |ddv_scf|^2 =  8.064E-13

      iter #   5 total cpu time :    14.9 secs   av.it.:   9.4
      thresh= 8.980E-08 alpha_mix =  0.700 |ddv_scf|^2 =  3.509E-15

      iter #   6 total cpu time :    16.2 secs   av.it.:  10.2
      thresh= 5.924E-09 alpha_mix =  0.700 |ddv_scf|^2 =  7.150E-18

      iter #   7 total cpu time :    16.3 secs   av.it.:  10.2
      thresh= 2.674E-10 alpha_mix =  0.700 |ddv_scf|^2 =  3.263E-19

      iter #   8 total cpu time :    16.5 secs   av.it.:  10.3
      thresh= 5.712E-11 alpha_mix =  0.700 |ddv_scf|^2 =  8.764E-22

      iter #   9 total cpu time :    16.6 secs   av.it.:  10.2
      thresh= 2.960E-12 alpha_mix =  0.700 |ddv_scf|^2 =  2.951E-24

      iter #  10 total cpu time :    16.7 secs   av.it.:   9.7
      thresh= 1.718E-13 alpha_mix =  0.700 |ddv_scf|^2 =  1.516E-25

     End of self-consistent calculation

     Convergence has been achieved 


     Representation #  4 modes #   5  6

     Self-consistent Calculation

      iter #   1 total cpu time :    17.0 secs   av.it.:   6.4
      thresh= 1.000E-02 alpha_mix =  0.700 |ddv_scf|^2 =  4.098E-07

      iter #   2 total cpu time :    18.7 secs   av.it.:   9.9
      thresh= 6.401E-05 alpha_mix =  0.700 |ddv_scf|^2 =  7.683E-10

      iter #   3 total cpu time :    18.8 secs   av.it.:   9.9
      thresh= 2.772E-06 alpha_mix =  0.700 |ddv_scf|^2 =  2.529E-11

      iter #   4 total cpu time :    19.0 secs   av.it.:   9.7
      thresh= 5.029E-07 alpha_mix =  0.700 |ddv_scf|^2 =  8.044E-13

      iter #   5 total cpu time :    19.1 secs   av.it.:   9.3
      thresh= 8.969E-08 alpha_mix =  0.700 |ddv_scf|^2 =  3.517E-15

      iter #   6 total cpu time :    19.2 secs   av.it.:  10.2
      thresh= 5.931E-09 alpha_mix =  0.700 |ddv_scf|^2 =  7.162E-18

      iter #   7 total cpu time :    19.3 secs   av.it.:  10.2
      thresh= 2.676E-10 alpha_mix =  0.700 |ddv_scf|^2 =  3.265E-19

      iter #   8 total cpu time :    19.5 secs   av.it.:  10.3
      thresh= 5.714E-11 alpha_mix =  0.700 |ddv_scf|^2 =  8.765E-22

      iter #   9 total cpu time :    19.6 secs   av.it.:  10.1
      thresh= 2.961E-12 alpha_mix =  0.700 |ddv_scf|^2 =  3.105E-24

      iter #  10 total cpu time :    19.7 secs   av.it.:   9.7
      thresh= 1.762E-13 alpha_mix =  0.700 |ddv_scf|^2 =  1.534E-25

     End of self-consistent calculation

     Convergence has been achieved 
 
     Number of q in the star =    8
     List of q in the star:
          1  -0.333333333   0.333333333  -0.333333333
          2   0.333333333   0.333333333  -0.333333333
          3   0.333333333   0.333333333   0.333333333
          4  -0.333333333   0.333333333   0.333333333
          5   0.333333333  -0.333333333   0.333333333
          6  -0.333333333  -0.333333333  -0.333333333
          7   0.333333333  -0.333333333  -0.333333333
          8  -0.333333333  -0.333333333   0.333333333

     Diagonalizing the dynamical matrix

     q = (   -0.333333333   0.333333333  -0.333333333 ) 

 **************************************************************************
     freq (    1) =      10.898955 [THz] =     363.550023 [cm-1]
     freq (    2) =      10.898955 [THz] =     363.550023 [cm-1]
     freq (    3) =      23.438163 [THz] =     781.812968 [cm-1]
     freq (    4) =      37.002983 [THz] =    1234.286671 [cm-1]
     freq (    5) =      37.002983 [THz] =    1234.286671 [cm-1]
     freq (    6) =      38.649457 [THz] =    1289.207117 [cm-1]
 **************************************************************************

     Mode symmetry, C_3v (3m)   point group:

     freq (  1 -  2) =        363.6  [cm-1]   --> E    L_3           
     freq (  3 -  3) =        781.8  [cm-1]   --> A_1  L_1           
     freq (  4 -  5) =       1234.3  [cm-1]   --> E    L_3           
     freq (  6 -  6) =       1289.2  [cm-1]   --> A_1  L_1           

     Calculation of q =    0.0000000   0.6666667   0.0000000

   Info: using nr1, nr2, nr3 values from input

   Info: using nr1, nr2, nr3 values from input
 
     Parallelization info
     --------------------
     sticks:   dense  smooth     PW     G-vecs:    dense   smooth      PW
     Min          15      15      4                  251      251      44
     Max          16      16      5                  253      253      48
     Sum         613     613    199                10081    10081    1893
 


     bravais-lattice index     =            2
     lattice parameter (alat)  =       6.7034  a.u.
     unit-cell volume          =      75.3061 (a.u.)^3
     number of atoms/cell      =            2
     number of atomic types    =            1
     number of electrons       =         8.00
     number of Kohn-Sham states=            8
     kinetic-energy cutoff     =     100.0000  Ry
     charge density cutoff     =     400.0000  Ry
     Exchange-correlation      = PZ ( 1  1  0  0 0 0)

     celldm(1)=   6.703426  celldm(2)=   0.000000  celldm(3)=   0.000000
     celldm(4)=   0.000000  celldm(5)=   0.000000  celldm(6)=   0.000000

     crystal axes: (cart. coord. in units of alat)
               a(1) = (  -0.500000   0.000000   0.500000 )  
               a(2) = (   0.000000   0.500000   0.500000 )  
               a(3) = (  -0.500000   0.500000   0.000000 )  

     reciprocal axes: (cart. coord. in units 2 pi/alat)
               b(1) = ( -1.000000 -1.000000  1.000000 )  
               b(2) = (  1.000000  1.000000  1.000000 )  
               b(3) = ( -1.000000  1.000000 -1.000000 )  


     PseudoPot. # 1 for  C read from file:
     ../C.pz-mt.fhi.UPF
     MD5 check sum: b7c38bc33a0cf75f44be89b84470f298
     Pseudo is Norm-conserving, Zval =  4.0
     Generated using FHI98PP, converted with fhi2upf.x v.5.0.2
     Using radial grid of  461 points,  2 beta functions with: 
                l(1) =   0
                l(2) =   1

     atomic species   valence    mass     pseudopotential
        C              4.00    12.01100      C( 1.00)

     48 Sym. Ops., with inversion, found



   Cartesian axes

     site n.     atom                  positions (alat units)
         1           C   tau(   1) = (   0.0000000   0.0000000   0.0000000  )
         2           C   tau(   2) = (  -0.2500000   0.2500000   0.2500000  )

     number of k points=    18
                       cart. coord. in units 2pi/alat
        k(    1) = (   0.0000000   0.0000000   0.0000000), wk =   0.0740741
        k(    2) = (   0.0000000   0.6666667   0.0000000), wk =   0.0000000
        k(    3) = (  -0.3333333   0.3333333  -0.3333333), wk =   0.2962963
        k(    4) = (  -0.3333333   1.0000000  -0.3333333), wk =   0.0000000
        k(    5) = (   0.0000000   0.6666667   0.0000000), wk =   0.0740741
        k(    6) = (   0.0000000   1.3333333   0.0000000), wk =   0.0000000
        k(    7) = (   0.6666667  -0.0000000   0.6666667), wk =   0.2962963
        k(    8) = (   0.6666667   0.6666667   0.6666667), wk =   0.0000000
        k(    9) = (   0.3333333  -0.3333333   0.3333333), wk =   0.2962963
        k(   10) = (   0.3333333   0.3333333   0.3333333), wk =   0.0000000
        k(   11) = (  -0.6666667   0.0000000   0.0000000), wk =   0.2962963
        k(   12) = (  -0.6666667   0.6666667   0.0000000), wk =   0.0000000
        k(   13) = (   0.0000000  -0.6666667   0.0000000), wk =   0.0740741
        k(   14) = (   0.0000000   0.0000000   0.0000000), wk =   0.0000000
        k(   15) = (   0.0000000  -0.6666667   0.6666667), wk =   0.2962963
        k(   16) = (   0.0000000  -0.0000000   0.6666667), wk =   0.0000000
        k(   17) = (  -0.6666667   0.6666667   0.0000000), wk =   0.2962963
        k(   18) = (  -0.6666667   1.3333333   0.0000000), wk =   0.0000000

     Dense  grid:    10081 G-vectors     FFT dimensions: (  32,  32,  32)

     Estimated max dynamical RAM per process >       0.35MB

     Estimated total allocated dynamical RAM >      13.84MB

     The potential is recalculated from file :
     ./_ph0/c.q_3/c.save/charge-density.dat

     Starting wfc are   18 atomic wfcs

     Band Structure Calculation
     Davidson diagonalization with overlap

     ethr =  1.25E-10,  avg # of iterations =  9.4

     total cpu time spent up to now is        0.6 secs

     End of band structure calculation

          k = 0.0000 0.0000 0.0000 (  1243 PWs)   bands (ev):

    -8.1912  13.2945  13.2945  13.2945  18.8995  18.8995  18.8995  27.0688

          k = 0.0000 0.6667 0.0000 (  1267 PWs)   bands (ev):

    -4.1148   6.2603   7.9331   7.9331  17.5104  21.0738  27.3835  27.3835

          k =-0.3333 0.3333-0.3333 (  1272 PWs)   bands (ev):

    -5.1280   3.9401  10.9588  10.9588  21.5941  21.5941  22.1570  28.5469

          k =-0.3333 1.0000-0.3333 (  1276 PWs)   bands (ev):

    -0.6170   2.4566   3.8024   8.5672  19.6843  26.2615  26.9141  28.4183

          k = 0.0000 0.6667 0.0000 (  1267 PWs)   bands (ev):

    -4.1148   6.2603   7.9331   7.9331  17.5104  21.0738  27.3835  27.3835

          k = 0.0000 1.3333 0.0000 (  1267 PWs)   bands (ev):

    -4.1148   6.2603   7.9331   7.9331  17.5104  21.0738  27.3835  27.3835

          k = 0.6667-0.0000 0.6667 (  1276 PWs)   bands (ev):

    -0.6170   2.4566   3.8024   8.5672  19.6843  26.2615  26.9141  28.4183

          k = 0.6667 0.6667 0.6667 (  1272 PWs)   bands (ev):

    -5.1280   3.9401  10.9588  10.9588  21.5941  21.5941  22.1570  28.5469

          k = 0.3333-0.3333 0.3333 (  1272 PWs)   bands (ev):

    -5.1280   3.9401  10.9588  10.9588  21.5941  21.5941  22.1570  28.5469

          k = 0.3333 0.3333 0.3333 (  1272 PWs)   bands (ev):

    -5.1280   3.9401  10.9588  10.9588  21.5941  21.5941  22.1570  28.5469

          k =-0.6667 0.0000 0.0000 (  1267 PWs)   bands (ev):

    -4.1148   6.2603   7.9331   7.9331  17.5104  21.0738  27.3835  27.3835

          k =-0.6667 0.6667 0.0000 (  1276 PWs)   bands (ev):

    -0.6170   2.4566   3.8024   8.5672  19.6843  26.2615  26.9141  28.4183

          k = 0.0000-0.6667 0.0000 (  1267 PWs)   bands (ev):

    -4.1148   6.2603   7.9331   7.9331  17.5104  21.0738  27.3835  27.3835

          k = 0.0000 0.0000 0.0000 (  1243 PWs)   bands (ev):

    -8.1912  13.2945  13.2945  13.2945  18.8995  18.8995  18.8995  27.0688

          k = 0.0000-0.6667 0.6667 (  1276 PWs)   bands (ev):

    -0.6170   2.4566   3.8024   8.5672  19.6843  26.2615  26.9141  28.4183

          k = 0.0000-0.0000 0.6667 (  1267 PWs)   bands (ev):

    -4.1148   6.2603   7.9331   7.9331  17.5104  21.0738  27.3835  27.3835

          k =-0.6667 0.6667 0.0000 (  1276 PWs)   bands (ev):

    -0.6170   2.4566   3.8024   8.5672  19.6843  26.2615  26.9141  28.4183

          k =-0.6667 1.3333 0.0000 (  1276 PWs)   bands (ev):

    -0.6170   2.4566   3.8024   8.5672  19.6843  26.2615  26.9141  28.4183

     highest occupied, lowest unoccupied level (ev):    13.2945   17.5104

     Writing output data file c.save

                                                                                

     bravais-lattice index     =            2
     lattice parameter (alat)  =       6.7034  a.u.
     unit-cell volume          =      75.3061 (a.u.)^3
     number of atoms/cell      =            2
     number of atomic types    =            1
     kinetic-energy cut-off    =     100.0000  Ry
     charge density cut-off    =     400.0000  Ry
     convergence threshold     =      1.0E-24
     beta                      =       0.7000
     number of iterations used =            4
     Exchange-correlation      = PZ ( 1  1  0  0 0 0)


     celldm(1)=    6.70343  celldm(2)=    0.00000  celldm(3)=    0.00000
     celldm(4)=    0.00000  celldm(5)=    0.00000  celldm(6)=    0.00000

     crystal axes: (cart. coord. in units of alat)
               a(1) = ( -0.5000  0.0000  0.5000 )  
               a(2) = (  0.0000  0.5000  0.5000 )  
               a(3) = ( -0.5000  0.5000  0.0000 )  

     reciprocal axes: (cart. coord. in units 2 pi/alat)
               b(1) = ( -1.0000 -1.0000  1.0000 )  
               b(2) = (  1.0000  1.0000  1.0000 )  
               b(3) = ( -1.0000  1.0000 -1.0000 )  


     Atoms inside the unit cell: 

     Cartesian axes

     site n.  atom      mass           positions (alat units)
        1     C   12.0110   tau(    1) = (    0.00000    0.00000    0.00000  )
        2     C   12.0110   tau(    2) = (   -0.25000    0.25000    0.25000  )

     Computing dynamical matrix for 
                    q = (   0.0000000   0.6666667   0.0000000 )
 
      8 Sym.Ops. (no q -> -q+G )


     G cutoff =  455.2960  (    252 G-vectors)     FFT grid: ( 32, 32, 32)
     number of k points=    18

     PseudoPot. # 1 for  C read from file:
     ../C.pz-mt.fhi.UPF
     MD5 check sum: b7c38bc33a0cf75f44be89b84470f298
     Pseudo is Norm-conserving, Zval =  4.0
     Generated using FHI98PP, converted with fhi2upf.x v.5.0.2
     Using radial grid of  461 points,  2 beta functions with: 
                l(1) =   0
                l(2) =   1

     Mode symmetry, C_4v (4mm)  point group:


     Atomic displacements:
     There are   4 irreducible representations

     Representation     1      1 modes -A_1  G_1 D_1  To be done

     Representation     2      1 modes -B_2  G_4 D_2'  To be done

     Representation     3      2 modes -E    G_5 D_5  To be done

     Representation     4      2 modes -E    G_5 D_5  To be done



     Alpha used in Ewald sum =   2.8000
     PHONON       :    17.01s CPU        20.00s WALL



     Representation #  1 mode #   1

     Self-consistent Calculation

      iter #   1 total cpu time :    20.2 secs   av.it.:   6.4
      thresh= 1.000E-02 alpha_mix =  0.700 |ddv_scf|^2 =  2.969E-04

      iter #   2 total cpu time :    20.6 secs   av.it.:   8.1
      thresh= 1.723E-03 alpha_mix =  0.700 |ddv_scf|^2 =  5.439E-04

      iter #   3 total cpu time :    20.7 secs   av.it.:   7.2
      thresh= 2.332E-03 alpha_mix =  0.700 |ddv_scf|^2 =  1.504E-07

      iter #   4 total cpu time :    20.8 secs   av.it.:   7.6
      thresh= 3.878E-05 alpha_mix =  0.700 |ddv_scf|^2 =  9.973E-11

      iter #   5 total cpu time :    20.9 secs   av.it.:   7.9
      thresh= 9.986E-07 alpha_mix =  0.700 |ddv_scf|^2 =  1.543E-11

      iter #   6 total cpu time :    21.0 secs   av.it.:   8.0
      thresh= 3.928E-07 alpha_mix =  0.700 |ddv_scf|^2 =  6.711E-14

      iter #   7 total cpu time :    21.0 secs   av.it.:   8.0
      thresh= 2.591E-08 alpha_mix =  0.700 |ddv_scf|^2 =  4.532E-16

      iter #   8 total cpu time :    21.1 secs   av.it.:   7.6
      thresh= 2.129E-09 alpha_mix =  0.700 |ddv_scf|^2 =  8.454E-18

      iter #   9 total cpu time :    21.1 secs   av.it.:   7.9
      thresh= 2.908E-10 alpha_mix =  0.700 |ddv_scf|^2 =  3.717E-20

      iter #  10 total cpu time :    21.2 secs   av.it.:   7.9
      thresh= 1.928E-11 alpha_mix =  0.700 |ddv_scf|^2 =  2.148E-22

      iter #  11 total cpu time :    21.2 secs   av.it.:   8.2
      thresh= 1.466E-12 alpha_mix =  0.700 |ddv_scf|^2 =  1.546E-23

      iter #  12 total cpu time :    21.3 secs   av.it.:   7.3
      thresh= 3.931E-13 alpha_mix =  0.700 |ddv_scf|^2 =  2.787E-26

     End of self-consistent calculation

     Convergence has been achieved 


     Representation #  2 mode #   2

     Self-consistent Calculation

      iter #   1 total cpu time :    21.3 secs   av.it.:   6.1
      thresh= 1.000E-02 alpha_mix =  0.700 |ddv_scf|^2 =  8.181E-06

      iter #   2 total cpu time :    21.6 secs   av.it.:   8.4
      thresh= 2.860E-04 alpha_mix =  0.700 |ddv_scf|^2 =  2.232E-06

      iter #   3 total cpu time :    21.7 secs   av.it.:   8.4
      thresh= 1.494E-04 alpha_mix =  0.700 |ddv_scf|^2 =  5.856E-08

      iter #   4 total cpu time :    21.9 secs   av.it.:   8.2
      thresh= 2.420E-05 alpha_mix =  0.700 |ddv_scf|^2 =  1.716E-10

      iter #   5 total cpu time :    22.7 secs   av.it.:   8.4
      thresh= 1.310E-06 alpha_mix =  0.700 |ddv_scf|^2 =  1.138E-12

      iter #   6 total cpu time :    24.8 secs   av.it.:   8.0
      thresh= 1.067E-07 alpha_mix =  0.700 |ddv_scf|^2 =  1.361E-15

      iter #   7 total cpu time :    25.1 secs   av.it.:   8.3
      thresh= 3.689E-09 alpha_mix =  0.700 |ddv_scf|^2 =  1.446E-17

      iter #   8 total cpu time :    25.6 secs   av.it.:   8.9
      thresh= 3.802E-10 alpha_mix =  0.700 |ddv_scf|^2 =  2.058E-20

      iter #   9 total cpu time :    25.9 secs   av.it.:   8.2
      thresh= 1.435E-11 alpha_mix =  0.700 |ddv_scf|^2 =  8.038E-22

      iter #  10 total cpu time :    26.1 secs   av.it.:   8.2
      thresh= 2.835E-12 alpha_mix =  0.700 |ddv_scf|^2 =  9.241E-24

      iter #  11 total cpu time :    26.9 secs   av.it.:   8.8
      thresh= 3.040E-13 alpha_mix =  0.700 |ddv_scf|^2 =  1.298E-24

      iter #  12 total cpu time :    27.0 secs   av.it.:   8.4
      thresh= 1.139E-13 alpha_mix =  0.700 |ddv_scf|^2 =  3.440E-26

     End of self-consistent calculation

     Convergence has been achieved 


     Representation #  3 modes #   3  4

     Self-consistent Calculation

      iter #   1 total cpu time :    27.1 secs   av.it.:   6.3
      thresh= 1.000E-02 alpha_mix =  0.700 |ddv_scf|^2 =  7.383E-07

      iter #   2 total cpu time :    27.4 secs   av.it.:   9.7
      thresh= 8.593E-05 alpha_mix =  0.700 |ddv_scf|^2 =  1.389E-08

      iter #   3 total cpu time :    27.5 secs   av.it.:   9.5
      thresh= 1.178E-05 alpha_mix =  0.700 |ddv_scf|^2 =  5.192E-11

      iter #   4 total cpu time :    27.6 secs   av.it.:   9.8
      thresh= 7.205E-07 alpha_mix =  0.700 |ddv_scf|^2 =  1.268E-12

      iter #   5 total cpu time :    27.9 secs   av.it.:   9.2
      thresh= 1.126E-07 alpha_mix =  0.700 |ddv_scf|^2 =  1.138E-15

      iter #   6 total cpu time :    28.5 secs   av.it.:  10.0
      thresh= 3.373E-09 alpha_mix =  0.700 |ddv_scf|^2 =  9.255E-18

      iter #   7 total cpu time :    30.3 secs   av.it.:  10.2
      thresh= 3.042E-10 alpha_mix =  0.700 |ddv_scf|^2 =  8.384E-20

      iter #   8 total cpu time :    31.0 secs   av.it.:   9.8
      thresh= 2.895E-11 alpha_mix =  0.700 |ddv_scf|^2 =  3.316E-21

      iter #   9 total cpu time :    31.6 secs   av.it.:   9.8
      thresh= 5.759E-12 alpha_mix =  0.700 |ddv_scf|^2 =  6.459E-24

      iter #  10 total cpu time :    31.7 secs   av.it.:   9.9
      thresh= 2.541E-13 alpha_mix =  0.700 |ddv_scf|^2 =  2.695E-25

     End of self-consistent calculation

     Convergence has been achieved 


     Representation #  4 modes #   5  6

     Self-consistent Calculation

      iter #   1 total cpu time :    31.8 secs   av.it.:   6.2
      thresh= 1.000E-02 alpha_mix =  0.700 |ddv_scf|^2 =  9.354E-07

      iter #   2 total cpu time :    32.4 secs   av.it.:   9.6
      thresh= 9.672E-05 alpha_mix =  0.700 |ddv_scf|^2 =  1.772E-08

      iter #   3 total cpu time :    32.5 secs   av.it.:   9.4
      thresh= 1.331E-05 alpha_mix =  0.700 |ddv_scf|^2 =  3.723E-11

      iter #   4 total cpu time :    32.7 secs   av.it.:   9.8
      thresh= 6.101E-07 alpha_mix =  0.700 |ddv_scf|^2 =  7.299E-13

      iter #   5 total cpu time :    33.6 secs   av.it.:   9.4
      thresh= 8.543E-08 alpha_mix =  0.700 |ddv_scf|^2 =  9.729E-16

      iter #   6 total cpu time :    34.2 secs   av.it.:   9.9
      thresh= 3.119E-09 alpha_mix =  0.700 |ddv_scf|^2 =  1.328E-17

      iter #   7 total cpu time :    34.9 secs   av.it.:   9.9
      thresh= 3.644E-10 alpha_mix =  0.700 |ddv_scf|^2 =  5.384E-20

      iter #   8 total cpu time :    36.1 secs   av.it.:   9.9
      thresh= 2.320E-11 alpha_mix =  0.700 |ddv_scf|^2 =  2.932E-21

      iter #   9 total cpu time :    36.7 secs   av.it.:  10.1
      thresh= 5.415E-12 alpha_mix =  0.700 |ddv_scf|^2 =  7.419E-24

      iter #  10 total cpu time :    36.9 secs   av.it.:   9.9
      thresh= 2.724E-13 alpha_mix =  0.700 |ddv_scf|^2 =  1.136E-25

     End of self-consistent calculation

     Convergence has been achieved 
 
     Number of q in the star =    6
     List of q in the star:
          1   0.000000000   0.666666667   0.000000000
          2  -0.666666667   0.000000000   0.000000000
          3   0.000000000  -0.666666667   0.000000000
          4   0.000000000   0.000000000   0.666666667
          5   0.000000000   0.000000000  -0.666666667
          6   0.666666667   0.000000000   0.000000000

     Diagonalizing the dynamical matrix

     q = (    0.000000000   0.666666667   0.000000000 ) 

 **************************************************************************
     freq (    1) =      16.884580 [THz] =     563.208960 [cm-1]
     freq (    2) =      16.884580 [THz] =     563.208960 [cm-1]
     freq (    3) =      26.519025 [THz] =     884.579461 [cm-1]
     freq (    4) =      33.862291 [THz] =    1129.524442 [cm-1]
     freq (    5) =      33.862291 [THz] =    1129.524442 [cm-1]
     freq (    6) =      38.842103 [THz] =    1295.633101 [cm-1]
 **************************************************************************

     Mode symmetry, C_4v (4mm)  point group:

     freq (  1 -  2) =        563.2  [cm-1]   --> E    G_5 D_5       
     freq (  3 -  3) =        884.6  [cm-1]   --> A_1  G_1 D_1       
     freq (  4 -  5) =       1129.5  [cm-1]   --> E    G_5 D_5       
     freq (  6 -  6) =       1295.6  [cm-1]   --> B_2  G_4 D_2'      

     Calculation of q =    0.6666667  -0.0000000   0.6666667

   Info: using nr1, nr2, nr3 values from input

   Info: using nr1, nr2, nr3 values from input
 
     Parallelization info
     --------------------
     sticks:   dense  smooth     PW     G-vecs:    dense   smooth      PW
     Min          15      15      5                  251      251      51
     Max          16      16      6                  253      253      54
     Sum         613     613    211                10081    10081    2085
 


     bravais-lattice index     =            2
     lattice parameter (alat)  =       6.7034  a.u.
     unit-cell volume          =      75.3061 (a.u.)^3
     number of atoms/cell      =            2
     number of atomic types    =            1
     number of electrons       =         8.00
     number of Kohn-Sham states=            8
     kinetic-energy cutoff     =     100.0000  Ry
     charge density cutoff     =     400.0000  Ry
     Exchange-correlation      = PZ ( 1  1  0  0 0 0)

     celldm(1)=   6.703426  celldm(2)=   0.000000  celldm(3)=   0.000000
     celldm(4)=   0.000000  celldm(5)=   0.000000  celldm(6)=   0.000000

     crystal axes: (cart. coord. in units of alat)
               a(1) = (  -0.500000   0.000000   0.500000 )  
               a(2) = (   0.000000   0.500000   0.500000 )  
               a(3) = (  -0.500000   0.500000   0.000000 )  

     reciprocal axes: (cart. coord. in units 2 pi/alat)
               b(1) = ( -1.000000 -1.000000  1.000000 )  
               b(2) = (  1.000000  1.000000  1.000000 )  
               b(3) = ( -1.000000  1.000000 -1.000000 )  


     PseudoPot. # 1 for  C read from file:
     ../C.pz-mt.fhi.UPF
     MD5 check sum: b7c38bc33a0cf75f44be89b84470f298
     Pseudo is Norm-conserving, Zval =  4.0
     Generated using FHI98PP, converted with fhi2upf.x v.5.0.2
     Using radial grid of  461 points,  2 beta functions with: 
                l(1) =   0
                l(2) =   1

     atomic species   valence    mass     pseudopotential
        C              4.00    12.01100      C( 1.00)

     48 Sym. Ops., with inversion, found



   Cartesian axes

     site n.     atom                  positions (alat units)
         1           C   tau(   1) = (   0.0000000   0.0000000   0.0000000  )
         2           C   tau(   2) = (  -0.2500000   0.2500000   0.2500000  )

     number of k points=    24
                       cart. coord. in units 2pi/alat
        k(    1) = (   0.0000000   0.0000000   0.0000000), wk =   0.0740741
        k(    2) = (   0.6666667  -0.0000000   0.6666667), wk =   0.0000000
        k(    3) = (  -0.3333333   0.3333333  -0.3333333), wk =   0.1481481
        k(    4) = (   0.3333333   0.3333333   0.3333333), wk =   0.0000000
        k(    5) = (   0.0000000   0.6666667   0.0000000), wk =   0.1481481
        k(    6) = (   0.6666667   0.6666667   0.6666667), wk =   0.0000000
        k(    7) = (   0.6666667  -0.0000000   0.6666667), wk =   0.0740741
        k(    8) = (   1.3333333  -0.0000000   1.3333333), wk =   0.0000000
        k(    9) = (  -0.3333333   0.3333333   0.3333333), wk =   0.2962963
        k(   10) = (   0.3333333   0.3333333   1.0000000), wk =   0.0000000
        k(   11) = (   0.3333333   0.3333333   0.3333333), wk =   0.1481481
        k(   12) = (   1.0000000   0.3333333   1.0000000), wk =   0.0000000
        k(   13) = (  -0.6666667   0.0000000   0.0000000), wk =   0.1481481
        k(   14) = (   0.0000000  -0.0000000   0.6666667), wk =   0.0000000
        k(   15) = (   0.0000000   0.0000000   0.6666667), wk =   0.1481481
        k(   16) = (   0.6666667  -0.0000000   1.3333333), wk =   0.0000000
        k(   17) = (   0.6666667   0.0000000  -0.6666667), wk =   0.1481481
        k(   18) = (   1.3333333  -0.0000000   0.0000000), wk =   0.0000000
        k(   19) = (  -0.6666667   0.0000000  -0.6666667), wk =   0.0740741
        k(   20) = (   0.0000000  -0.0000000   0.0000000), wk =   0.0000000
        k(   21) = (   0.0000000  -0.6666667   0.6666667), wk =   0.2962963
        k(   22) = (   0.6666667  -0.6666667   1.3333333), wk =   0.0000000
        k(   23) = (  -0.6666667   0.6666667   0.0000000), wk =   0.2962963
        k(   24) = (   0.0000000   0.6666667   0.6666667), wk =   0.0000000

     Dense  grid:    10081 G-vectors     FFT dimensions: (  32,  32,  32)

     Estimated max dynamical RAM per process >       0.35MB

     Estimated total allocated dynamical RAM >      13.84MB

     The potential is recalculated from file :
     ./_ph0/c.q_4/c.save/charge-density.dat

     Starting wfc are   18 atomic wfcs

     Band Structure Calculation
     Davidson diagonalization with overlap

     ethr =  1.25E-10,  avg # of iterations =  9.8

     total cpu time spent up to now is        0.9 secs

     End of band structure calculation

          k = 0.0000 0.0000 0.0000 (  1243 PWs)   bands (ev):

    -8.1912  13.2945  13.2945  13.2945  18.8995  18.8995  18.8995  27.0688

          k = 0.6667-0.0000 0.6667 (  1276 PWs)   bands (ev):

    -0.6170   2.4566   3.8024   8.5672  19.6843  26.2615  26.9141  28.4183

          k =-0.3333 0.3333-0.3333 (  1272 PWs)   bands (ev):

    -5.1280   3.9401  10.9588  10.9588  21.5941  21.5941  22.1570  28.5469

          k = 0.3333 0.3333 0.3333 (  1272 PWs)   bands (ev):

    -5.1280   3.9401  10.9588  10.9588  21.5941  21.5941  22.1570  28.5469

          k = 0.0000 0.6667 0.0000 (  1267 PWs)   bands (ev):

    -4.1148   6.2603   7.9331   7.9331  17.5104  21.0738  27.3835  27.3835

          k = 0.6667 0.6667 0.6667 (  1272 PWs)   bands (ev):

    -5.1280   3.9401  10.9588  10.9588  21.5941  21.5941  22.1570  28.5469

          k = 0.6667-0.0000 0.6667 (  1276 PWs)   bands (ev):

    -0.6170   2.4566   3.8024   8.5672  19.6843  26.2615  26.9141  28.4183

          k = 1.3333-0.0000 1.3333 (  1276 PWs)   bands (ev):

    -0.6170   2.4566   3.8024   8.5672  19.6843  26.2615  26.9141  28.4183

          k =-0.3333 0.3333 0.3333 (  1272 PWs)   bands (ev):

    -5.1280   3.9401  10.9588  10.9588  21.5941  21.5941  22.1570  28.5469

          k = 0.3333 0.3333 1.0000 (  1276 PWs)   bands (ev):

    -0.6170   2.4566   3.8024   8.5672  19.6843  26.2615  26.9141  28.4183

          k = 0.3333 0.3333 0.3333 (  1272 PWs)   bands (ev):

    -5.1280   3.9401  10.9588  10.9588  21.5941  21.5941  22.1570  28.5469

          k = 1.0000 0.3333 1.0000 (  1267 PWs)   bands (ev):

    -4.1148   6.2603   7.9331   7.9331  17.5104  21.0738  27.3835  27.3835

          k =-0.6667 0.0000 0.0000 (  1267 PWs)   bands (ev):

    -4.1148   6.2603   7.9331   7.9331  17.5104  21.0738  27.3835  27.3835

          k = 0.0000-0.0000 0.6667 (  1267 PWs)   bands (ev):

    -4.1148   6.2603   7.9331   7.9331  17.5104  21.0738  27.3835  27.3835

          k = 0.0000 0.0000 0.6667 (  1267 PWs)   bands (ev):

    -4.1148   6.2603   7.9331   7.9331  17.5104  21.0738  27.3835  27.3835

          k = 0.6667-0.0000 1.3333 (  1276 PWs)   bands (ev):

    -0.6170   2.4566   3.8024   8.5672  19.6843  26.2615  26.9141  28.4183

          k = 0.6667 0.0000-0.6667 (  1276 PWs)   bands (ev):

    -0.6170   2.4566   3.8024   8.5672  19.6843  26.2615  26.9141  28.4183

          k = 1.3333-0.0000 0.0000 (  1267 PWs)   bands (ev):

    -4.1148   6.2603   7.9331   7.9331  17.5104  21.0738  27.3835  27.3835

          k =-0.6667 0.0000-0.6667 (  1276 PWs)   bands (ev):

    -0.6170   2.4566   3.8024   8.5672  19.6843  26.2615  26.9141  28.4183

          k = 0.0000-0.0000 0.0000 (  1243 PWs)   bands (ev):

    -8.1912  13.2945  13.2945  13.2945  18.8995  18.8995  18.8995  27.0688

          k = 0.0000-0.6667 0.6667 (  1276 PWs)   bands (ev):

    -0.6170   2.4566   3.8024   8.5672  19.6843  26.2615  26.9141  28.4183

          k = 0.6667-0.6667 1.3333 (  1272 PWs)   bands (ev):

    -5.1280   3.9401  10.9588  10.9588  21.5941  21.5941  22.1570  28.5469

          k =-0.6667 0.6667 0.0000 (  1276 PWs)   bands (ev):

    -0.6170   2.4566   3.8024   8.5672  19.6843  26.2615  26.9141  28.4183

          k = 0.0000 0.6667 0.6667 (  1276 PWs)   bands (ev):

    -0.6170   2.4566   3.8024   8.5672  19.6843  26.2615  26.9141  28.4183

     highest occupied, lowest unoccupied level (ev):    13.2945   17.5104

     Writing output data file c.save

                                                                                

     bravais-lattice index     =            2
     lattice parameter (alat)  =       6.7034  a.u.
     unit-cell volume          =      75.3061 (a.u.)^3
     number of atoms/cell      =            2
     number of atomic types    =            1
     kinetic-energy cut-off    =     100.0000  Ry
     charge density cut-off    =     400.0000  Ry
     convergence threshold     =      1.0E-24
     beta                      =       0.7000
     number of iterations used =            4
     Exchange-correlation      = PZ ( 1  1  0  0 0 0)


     celldm(1)=    6.70343  celldm(2)=    0.00000  celldm(3)=    0.00000
     celldm(4)=    0.00000  celldm(5)=    0.00000  celldm(6)=    0.00000

     crystal axes: (cart. coord. in units of alat)
               a(1) = ( -0.5000  0.0000  0.5000 )  
               a(2) = (  0.0000  0.5000  0.5000 )  
               a(3) = ( -0.5000  0.5000  0.0000 )  

     reciprocal axes: (cart. coord. in units 2 pi/alat)
               b(1) = ( -1.0000 -1.0000  1.0000 )  
               b(2) = (  1.0000  1.0000  1.0000 )  
               b(3) = ( -1.0000  1.0000 -1.0000 )  


     Atoms inside the unit cell: 

     Cartesian axes

     site n.  atom      mass           positions (alat units)
        1     C   12.0110   tau(    1) = (    0.00000    0.00000    0.00000  )
        2     C   12.0110   tau(    2) = (   -0.25000    0.25000    0.25000  )

     Computing dynamical matrix for 
                    q = (   0.6666667  -0.0000000   0.6666667 )
 
      4 Sym.Ops. (no q -> -q+G )


     G cutoff =  455.2960  (    252 G-vectors)     FFT grid: ( 32, 32, 32)
     number of k points=    24

     PseudoPot. # 1 for  C read from file:
     ../C.pz-mt.fhi.UPF
     MD5 check sum: b7c38bc33a0cf75f44be89b84470f298
     Pseudo is Norm-conserving, Zval =  4.0
     Generated using FHI98PP, converted with fhi2upf.x v.5.0.2
     Using radial grid of  461 points,  2 beta functions with: 
                l(1) =   0
                l(2) =   1

     Mode symmetry, C_2v (mm2)  point group:


     Atomic displacements:
     There are   6 irreducible representations

     Representation     1      1 modes -A_1  D_1  S_1  To be done

     Representation     2      1 modes -A_1  D_1  S_1  To be done

     Representation     3      1 modes -A_2  D_2  S_2  To be done

     Representation     4      1 modes -B_1  D_3  S_3  To be done

     Representation     5      1 modes -B_2  D_4  S_4  To be done

     Representation     6      1 modes -B_2  D_4  S_4  To be done



     Alpha used in Ewald sum =   2.8000
     PHONON       :    32.72s CPU        37.25s WALL



     Representation #  1 mode #   1

     Self-consistent Calculation

      iter #   1 total cpu time :    37.4 secs   av.it.:   6.8
      thresh= 1.000E-02 alpha_mix =  0.700 |ddv_scf|^2 =  4.874E-05

      iter #   2 total cpu time :    38.9 secs   av.it.:   8.8
      thresh= 6.981E-04 alpha_mix =  0.700 |ddv_scf|^2 =  2.493E-05

      iter #   3 total cpu time :    40.2 secs   av.it.:   8.4
      thresh= 4.993E-04 alpha_mix =  0.700 |ddv_scf|^2 =  2.501E-07

      iter #   4 total cpu time :    40.3 secs   av.it.:   8.6
      thresh= 5.001E-05 alpha_mix =  0.700 |ddv_scf|^2 =  6.913E-10

      iter #   5 total cpu time :    40.7 secs   av.it.:   8.5
      thresh= 2.629E-06 alpha_mix =  0.700 |ddv_scf|^2 =  5.458E-12

      iter #   6 total cpu time :    41.1 secs   av.it.:   8.3
      thresh= 2.336E-07 alpha_mix =  0.700 |ddv_scf|^2 =  7.282E-14

      iter #   7 total cpu time :    42.2 secs   av.it.:   8.5
      thresh= 2.698E-08 alpha_mix =  0.700 |ddv_scf|^2 =  3.213E-15

      iter #   8 total cpu time :    43.2 secs   av.it.:   8.9
      thresh= 5.669E-09 alpha_mix =  0.700 |ddv_scf|^2 =  1.840E-15

      iter #   9 total cpu time :    43.2 secs   av.it.:   8.4
      thresh= 4.289E-09 alpha_mix =  0.700 |ddv_scf|^2 =  7.141E-18

      iter #  10 total cpu time :    43.3 secs   av.it.:   8.9
      thresh= 2.672E-10 alpha_mix =  0.700 |ddv_scf|^2 =  1.597E-18

      iter #  11 total cpu time :    43.4 secs   av.it.:   8.7
      thresh= 1.264E-10 alpha_mix =  0.700 |ddv_scf|^2 =  5.321E-20

      iter #  12 total cpu time :    43.4 secs   av.it.:   8.7
      thresh= 2.307E-11 alpha_mix =  0.700 |ddv_scf|^2 =  4.682E-21

      iter #  13 total cpu time :    43.5 secs   av.it.:   8.6
      thresh= 6.843E-12 alpha_mix =  0.700 |ddv_scf|^2 =  3.760E-23

      iter #  14 total cpu time :    43.5 secs   av.it.:   8.5
      thresh= 6.132E-13 alpha_mix =  0.700 |ddv_scf|^2 =  2.745E-24

      iter #  15 total cpu time :    43.6 secs   av.it.:   9.0
      thresh= 1.657E-13 alpha_mix =  0.700 |ddv_scf|^2 =  5.998E-25

     End of self-consistent calculation

     Convergence has been achieved 


     Representation #  2 mode #   2

     Self-consistent Calculation

      iter #   1 total cpu time :    43.7 secs   av.it.:   6.5
      thresh= 1.000E-02 alpha_mix =  0.700 |ddv_scf|^2 =  2.450E-05

      iter #   2 total cpu time :    43.8 secs   av.it.:   8.9
      thresh= 4.950E-04 alpha_mix =  0.700 |ddv_scf|^2 =  8.842E-06

      iter #   3 total cpu time :    44.0 secs   av.it.:   8.5
      thresh= 2.974E-04 alpha_mix =  0.700 |ddv_scf|^2 =  2.351E-07

      iter #   4 total cpu time :    44.4 secs   av.it.:   8.5
      thresh= 4.848E-05 alpha_mix =  0.700 |ddv_scf|^2 =  8.293E-10

      iter #   5 total cpu time :    44.6 secs   av.it.:   8.5
      thresh= 2.880E-06 alpha_mix =  0.700 |ddv_scf|^2 =  5.397E-12

      iter #   6 total cpu time :    44.7 secs   av.it.:   8.3
      thresh= 2.323E-07 alpha_mix =  0.700 |ddv_scf|^2 =  7.548E-14

      iter #   7 total cpu time :    45.1 secs   av.it.:   8.3
      thresh= 2.747E-08 alpha_mix =  0.700 |ddv_scf|^2 =  4.335E-15

      iter #   8 total cpu time :    45.1 secs   av.it.:   8.8
      thresh= 6.584E-09 alpha_mix =  0.700 |ddv_scf|^2 =  2.361E-15

      iter #   9 total cpu time :    45.2 secs   av.it.:   8.4
      thresh= 4.859E-09 alpha_mix =  0.700 |ddv_scf|^2 =  3.171E-18

      iter #  10 total cpu time :    45.3 secs   av.it.:   8.8
      thresh= 1.781E-10 alpha_mix =  0.700 |ddv_scf|^2 =  4.371E-19

      iter #  11 total cpu time :    45.3 secs   av.it.:   8.8
      thresh= 6.611E-11 alpha_mix =  0.700 |ddv_scf|^2 =  2.674E-20

      iter #  12 total cpu time :    45.4 secs   av.it.:   8.7
      thresh= 1.635E-11 alpha_mix =  0.700 |ddv_scf|^2 =  3.580E-22

      iter #  13 total cpu time :    45.4 secs   av.it.:   8.8
      thresh= 1.892E-12 alpha_mix =  0.700 |ddv_scf|^2 =  1.251E-23

      iter #  14 total cpu time :    45.5 secs   av.it.:   8.8
      thresh= 3.537E-13 alpha_mix =  0.700 |ddv_scf|^2 =  7.874E-25

     End of self-consistent calculation

     Convergence has been achieved 


     Representation #  3 mode #   3

     Self-consistent Calculation

      iter #   1 total cpu time :    45.6 secs   av.it.:   5.9
      thresh= 1.000E-02 alpha_mix =  0.700 |ddv_scf|^2 =  5.399E-06

      iter #   2 total cpu time :    45.7 secs   av.it.:   8.3
      thresh= 2.323E-04 alpha_mix =  0.700 |ddv_scf|^2 =  7.658E-08

      iter #   3 total cpu time :    45.8 secs   av.it.:   8.4
      thresh= 2.767E-05 alpha_mix =  0.700 |ddv_scf|^2 =  1.688E-10

      iter #   4 total cpu time :    45.9 secs   av.it.:   8.0
      thresh= 1.299E-06 alpha_mix =  0.700 |ddv_scf|^2 =  1.786E-12

      iter #   5 total cpu time :    46.0 secs   av.it.:   8.0
      thresh= 1.336E-07 alpha_mix =  0.700 |ddv_scf|^2 =  1.439E-15

      iter #   6 total cpu time :    46.1 secs   av.it.:   8.4
      thresh= 3.793E-09 alpha_mix =  0.700 |ddv_scf|^2 =  4.567E-17

      iter #   7 total cpu time :    46.1 secs   av.it.:   8.7
      thresh= 6.758E-10 alpha_mix =  0.700 |ddv_scf|^2 =  8.451E-20

      iter #   8 total cpu time :    46.2 secs   av.it.:   8.4
      thresh= 2.907E-11 alpha_mix =  0.700 |ddv_scf|^2 =  5.828E-21

      iter #   9 total cpu time :    46.2 secs   av.it.:   8.5
      thresh= 7.634E-12 alpha_mix =  0.700 |ddv_scf|^2 =  5.365E-24

      iter #  10 total cpu time :    46.3 secs   av.it.:   8.6
      thresh= 2.316E-13 alpha_mix =  0.700 |ddv_scf|^2 =  2.407E-25

     End of self-consistent calculation

     Convergence has been achieved 


     Representation #  4 mode #   4

     Self-consistent Calculation

      iter #   1 total cpu time :    46.4 secs   av.it.:   5.8
      thresh= 1.000E-02 alpha_mix =  0.700 |ddv_scf|^2 =  2.178E-07

      iter #   2 total cpu time :    46.5 secs   av.it.:   8.7
      thresh= 4.667E-05 alpha_mix =  0.700 |ddv_scf|^2 =  2.352E-09

      iter #   3 total cpu time :    46.6 secs   av.it.:   8.6
      thresh= 4.849E-06 alpha_mix =  0.700 |ddv_scf|^2 =  4.652E-11

      iter #   4 total cpu time :    46.7 secs   av.it.:   8.0
      thresh= 6.821E-07 alpha_mix =  0.700 |ddv_scf|^2 =  1.254E-14

      iter #   5 total cpu time :    46.8 secs   av.it.:   8.8
      thresh= 1.120E-08 alpha_mix =  0.700 |ddv_scf|^2 =  1.835E-16

      iter #   6 total cpu time :    46.8 secs   av.it.:   8.8
      thresh= 1.355E-09 alpha_mix =  0.700 |ddv_scf|^2 =  8.400E-19

      iter #   7 total cpu time :    46.9 secs   av.it.:   8.6
      thresh= 9.165E-11 alpha_mix =  0.700 |ddv_scf|^2 =  1.802E-21

      iter #   8 total cpu time :    46.9 secs   av.it.:   8.2
      thresh= 4.245E-12 alpha_mix =  0.700 |ddv_scf|^2 =  1.355E-22

      iter #   9 total cpu time :    47.0 secs   av.it.:   8.4
      thresh= 1.164E-12 alpha_mix =  0.700 |ddv_scf|^2 =  4.648E-26

     End of self-consistent calculation

     Convergence has been achieved 


     Representation #  5 mode #   5

     Self-consistent Calculation

      iter #   1 total cpu time :    47.1 secs   av.it.:   6.1
      thresh= 1.000E-02 alpha_mix =  0.700 |ddv_scf|^2 =  4.817E-06

      iter #   2 total cpu time :    47.2 secs   av.it.:   8.9
      thresh= 2.195E-04 alpha_mix =  0.700 |ddv_scf|^2 =  2.762E-06

      iter #   3 total cpu time :    47.3 secs   av.it.:   8.6
      thresh= 1.662E-04 alpha_mix =  0.700 |ddv_scf|^2 =  1.409E-08

      iter #   4 total cpu time :    47.4 secs   av.it.:   8.6
      thresh= 1.187E-05 alpha_mix =  0.700 |ddv_scf|^2 =  5.137E-11

      iter #   5 total cpu time :    47.5 secs   av.it.:   8.9
      thresh= 7.168E-07 alpha_mix =  0.700 |ddv_scf|^2 =  2.435E-12

      iter #   6 total cpu time :    47.5 secs   av.it.:   8.5
      thresh= 1.560E-07 alpha_mix =  0.700 |ddv_scf|^2 =  2.910E-15

      iter #   7 total cpu time :    47.6 secs   av.it.:   8.5
      thresh= 5.394E-09 alpha_mix =  0.700 |ddv_scf|^2 =  1.390E-16

      iter #   8 total cpu time :    47.6 secs   av.it.:   8.8
      thresh= 1.179E-09 alpha_mix =  0.700 |ddv_scf|^2 =  1.753E-18

      iter #   9 total cpu time :    47.7 secs   av.it.:   8.7
      thresh= 1.324E-10 alpha_mix =  0.700 |ddv_scf|^2 =  8.638E-20

      iter #  10 total cpu time :    47.8 secs   av.it.:   9.0
      thresh= 2.939E-11 alpha_mix =  0.700 |ddv_scf|^2 =  2.804E-21

      iter #  11 total cpu time :    47.8 secs   av.it.:   9.1
      thresh= 5.295E-12 alpha_mix =  0.700 |ddv_scf|^2 =  1.499E-22

      iter #  12 total cpu time :    47.9 secs   av.it.:   8.8
      thresh= 1.224E-12 alpha_mix =  0.700 |ddv_scf|^2 =  4.503E-24

      iter #  13 total cpu time :    47.9 secs   av.it.:   8.8
      thresh= 2.122E-13 alpha_mix =  0.700 |ddv_scf|^2 =  3.765E-26

     End of self-consistent calculation

     Convergence has been achieved 


     Representation #  6 mode #   6

     Self-consistent Calculation

      iter #   1 total cpu time :    48.0 secs   av.it.:   6.3
      thresh= 1.000E-02 alpha_mix =  0.700 |ddv_scf|^2 =  2.295E-05

      iter #   2 total cpu time :    48.1 secs   av.it.:   8.9
      thresh= 4.790E-04 alpha_mix =  0.700 |ddv_scf|^2 =  1.170E-05

      iter #   3 total cpu time :    48.2 secs   av.it.:   8.5
      thresh= 3.421E-04 alpha_mix =  0.700 |ddv_scf|^2 =  9.533E-08

      iter #   4 total cpu time :    48.3 secs   av.it.:   8.6
      thresh= 3.088E-05 alpha_mix =  0.700 |ddv_scf|^2 =  1.116E-10

      iter #   5 total cpu time :    48.4 secs   av.it.:   8.7
      thresh= 1.056E-06 alpha_mix =  0.700 |ddv_scf|^2 =  1.418E-12

      iter #   6 total cpu time :    48.5 secs   av.it.:   8.3
      thresh= 1.191E-07 alpha_mix =  0.700 |ddv_scf|^2 =  1.143E-14

      iter #   7 total cpu time :    48.5 secs   av.it.:   8.9
      thresh= 1.069E-08 alpha_mix =  0.700 |ddv_scf|^2 =  5.163E-16

      iter #   8 total cpu time :    48.6 secs   av.it.:   8.8
      thresh= 2.272E-09 alpha_mix =  0.700 |ddv_scf|^2 =  1.133E-16

      iter #   9 total cpu time :    48.6 secs   av.it.:   8.6
      thresh= 1.064E-09 alpha_mix =  0.700 |ddv_scf|^2 =  3.782E-19

      iter #  10 total cpu time :    48.7 secs   av.it.:   8.8
      thresh= 6.150E-11 alpha_mix =  0.700 |ddv_scf|^2 =  1.400E-20

      iter #  11 total cpu time :    49.0 secs   av.it.:   9.0
      thresh= 1.183E-11 alpha_mix =  0.700 |ddv_scf|^2 =  1.587E-21

      iter #  12 total cpu time :    49.3 secs   av.it.:   8.8
      thresh= 3.984E-12 alpha_mix =  0.700 |ddv_scf|^2 =  2.198E-23

      iter #  13 total cpu time :    49.4 secs   av.it.:   8.7
      thresh= 4.688E-13 alpha_mix =  0.700 |ddv_scf|^2 =  3.453E-25

     End of self-consistent calculation

     Convergence has been achieved 
 
     Number of q in the star =   12
     List of q in the star:
          1   0.666666667   0.000000000   0.666666667
          2   0.666666667   0.000000000  -0.666666667
          3  -0.666666667   0.000000000  -0.666666667
          4  -0.666666667   0.000000000   0.666666667
          5   0.000000000  -0.666666667   0.666666667
          6  -0.666666667   0.666666667   0.000000000
          7  -0.666666667  -0.666666667   0.000000000
          8   0.666666667   0.666666667   0.000000000
          9   0.666666667  -0.666666667   0.000000000
         10   0.000000000   0.666666667   0.666666667
         11   0.000000000   0.666666667  -0.666666667
         12   0.000000000  -0.666666667  -0.666666667

     Diagonalizing the dynamical matrix

     q = (    0.666666667  -0.000000000   0.666666667 ) 

 **************************************************************************
     freq (    1) =      19.615970 [THz] =     654.318344 [cm-1]
     freq (    2) =      26.982538 [THz] =     900.040591 [cm-1]
     freq (    3) =      27.539894 [THz] =     918.631967 [cm-1]
     freq (    4) =      31.646854 [THz] =    1055.625415 [cm-1]
     freq (    5) =      32.132607 [THz] =    1071.828404 [cm-1]
     freq (    6) =      35.626183 [THz] =    1188.361543 [cm-1]
 **************************************************************************

     Mode symmetry, C_2v (mm2)  point group:

     freq (  1 -  1) =        654.3  [cm-1]   --> B_1  D_3  S_3      
     freq (  2 -  2) =        900.0  [cm-1]   --> A_1  D_1  S_1      
     freq (  3 -  3) =        918.6  [cm-1]   --> B_2  D_4  S_4      
     freq (  4 -  4) =       1055.6  [cm-1]   --> B_2  D_4  S_4      
     freq (  5 -  5) =       1071.8  [cm-1]   --> A_2  D_2  S_2      
     freq (  6 -  6) =       1188.4  [cm-1]   --> A_1  D_1  S_1      
 
     init_run     :      0.04s CPU      0.09s WALL (       3 calls)
     electrons    :      0.63s CPU      0.74s WALL (       3 calls)

     Called by init_run:
     wfcinit      :      0.00s CPU      0.01s WALL (       3 calls)
     potinit      :      0.01s CPU      0.01s WALL (       3 calls)

     Called by electrons:
     c_bands      :      0.63s CPU      0.72s WALL (       3 calls)
     v_of_rho     :      0.01s CPU      0.02s WALL (       4 calls)

     Called by c_bands:
     init_us_2    :      0.02s CPU      0.02s WALL (    2224 calls)
     cegterg      :      0.45s CPU      0.47s WALL (      62 calls)

     Called by sum_band:

     Called by *egterg:
     h_psi        :     11.61s CPU     12.14s WALL (   25939 calls)
     g_psi        :      0.00s CPU      0.00s WALL (     588 calls)
     cdiaghg      :      0.11s CPU      0.11s WALL (     650 calls)

     Called by h_psi:
     h_psi:pot    :     11.57s CPU     12.10s WALL (   25939 calls)
     h_psi:calbec :      0.59s CPU      0.62s WALL (   25939 calls)
     vloc_psi     :     10.82s CPU     11.30s WALL (   25939 calls)
     add_vuspsi   :      0.09s CPU      0.10s WALL (   25939 calls)

     General routines
     calbec       :      1.06s CPU      1.14s WALL (   52368 calls)
     fft          :      0.22s CPU      0.23s WALL (     877 calls)
     ffts         :      0.02s CPU      0.02s WALL (     330 calls)
     fftw         :     21.28s CPU     21.92s WALL (  236546 calls)
     davcio       :      0.32s CPU      2.87s WALL (   13453 calls)
 
     Parallel routines
     fft_scatter  :     20.40s CPU     20.97s WALL (  237753 calls)
 
     PHONON       :    43.49s CPU        49.47s WALL

     INITIALIZATION: 
     phq_setup    :      0.01s CPU      0.03s WALL (       4 calls)
     phq_init     :      0.05s CPU      0.08s WALL (       4 calls)
 
     phq_init     :      0.05s CPU      0.08s WALL (       4 calls)
     init_vloc    :      0.00s CPU      0.02s WALL (       4 calls)
     init_us_1    :      0.01s CPU      0.02s WALL (       4 calls)
 
     DYNAMICAL MATRIX:
     dynmat0      :      0.02s CPU      0.04s WALL (       4 calls)
     phqscf       :     40.90s CPU     45.51s WALL (       4 calls)
     dynmatrix    :      0.01s CPU      0.02s WALL (       4 calls)
 
     phqscf       :     40.90s CPU     45.51s WALL (       4 calls)
     solve_linter :     40.83s CPU     45.39s WALL (      16 calls)
     drhodv       :      0.04s CPU      0.06s WALL (      16 calls)
 
     dynmat0      :      0.02s CPU      0.04s WALL (       4 calls)
     dynmat_us    :      0.01s CPU      0.02s WALL (       4 calls)
     d2ionq       :      0.00s CPU      0.00s WALL (       4 calls)
 
     dynmat_us    :      0.01s CPU      0.02s WALL (       4 calls)
 
     phqscf       :     40.90s CPU     45.51s WALL (       4 calls)
     solve_linter :     40.83s CPU     45.39s WALL (      16 calls)
 
     solve_linter :     40.83s CPU     45.39s WALL (      16 calls)
     dvqpsi_us    :      0.13s CPU      0.15s WALL (     234 calls)
     ortho        :      0.15s CPU      0.17s WALL (    2516 calls)
     cgsolve      :     13.58s CPU     14.26s WALL (    2516 calls)
     incdrhoscf   :      4.42s CPU      4.50s WALL (    2504 calls)
     vpsifft      :      6.34s CPU      6.45s WALL (    2198 calls)
     dv_of_drho   :      0.21s CPU      0.21s WALL (     287 calls)
     mix_pot      :      6.51s CPU      9.05s WALL (     197 calls)
     psymdvscf    :      3.21s CPU      3.23s WALL (     189 calls)
 
     dvqpsi_us    :      0.13s CPU      0.15s WALL (     234 calls)
     dvqpsi_us_on :      0.01s CPU      0.01s WALL (     234 calls)
 
     cgsolve      :     13.58s CPU     14.26s WALL (    2516 calls)
     ch_psi       :     12.50s CPU     13.11s WALL (   25227 calls)
 
     ch_psi       :     12.50s CPU     13.11s WALL (   25227 calls)
     h_psi        :     11.61s CPU     12.14s WALL (   25939 calls)
     last         :      1.10s CPU      1.18s WALL (   25227 calls)
 
     h_psi        :     11.61s CPU     12.14s WALL (   25939 calls)
     add_vuspsi   :      0.09s CPU      0.10s WALL (   25939 calls)
 
     incdrhoscf   :      4.42s CPU      4.50s WALL (    2504 calls)
 
 
      General routines
     calbec       :      1.06s CPU      1.14s WALL (   52368 calls)
     fft          :      0.22s CPU      0.23s WALL (     877 calls)
     ffts         :      0.02s CPU      0.02s WALL (     330 calls)
     fftw         :     21.28s CPU     21.92s WALL (  236546 calls)
     davcio       :      0.32s CPU      2.87s WALL (   13453 calls)
     write_rec    :      0.13s CPU      0.56s WALL (     213 calls)
 
 
     PHONON       :    43.49s CPU        49.47s WALL

 
   This run was terminated on:  12:23: 2  17Dec2020            

=------------------------------------------------------------------------------=
   JOB DONE.
=------------------------------------------------------------------------------=
