
     Program PWSCF v.6.1 (svn rev. 13369) starts on  8Dec2020 at 12: 5:37 

     This program is part of the open-source Quantum ESPRESSO suite
     for quantum simulation of materials; please cite
         "P. Giannozzi et al., J. Phys.:Condens. Matter 21 395502 (2009);
          URL http://www.quantum-espresso.org", 
     in publications or presentations arising from this work. More details at
     http://www.quantum-espresso.org/quote

     Parallel version (MPI & OpenMP), running on      40 processor cores
     Number of MPI processes:                40
     Threads/MPI process:                     1
     R & G space division:  proc/nbgrp/npool/nimage =      40
     Waiting for input...
     Reading input from standard input

     Current dimensions of program PWSCF are:
     Max number of different atomic species (ntypx) = 10
     Max number of k-points (npk) =  40000
     Max angular momentum in pseudopotentials (lmaxx) =  3

     IMPORTANT: XC functional enforced from input :
     Exchange-correlation      = PZ ( 1  1  0  0 0 0)
     Any further DFT definition will be discarded
     Please, verify this is what you really want

               file C.pz-mt.fhi.UPF: wavefunction(s)  3d renormalized

     Subspace diagonalization in iterative solution of the eigenvalue problem:
     one sub-group per band group will be used
     scalapack distributed-memory algorithm (size of sub-group:  4*  4 procs)

 
     Parallelization info
     --------------------
     sticks:   dense  smooth     PW     G-vecs:    dense   smooth      PW
     Min          15      15      4                  251      251      43
     Max          16      16      5                  253      253      47
     Sum         613     613    199                10081    10081    1807
 


     bravais-lattice index     =            2
     lattice parameter (alat)  =       6.7034  a.u.
     unit-cell volume          =      75.3061 (a.u.)^3
     number of atoms/cell      =            2
     number of atomic types    =            1
     number of electrons       =         8.00
     number of Kohn-Sham states=            8
     kinetic-energy cutoff     =     100.0000  Ry
     charge density cutoff     =     400.0000  Ry
     convergence threshold     =      1.0E-15
     mixing beta               =       0.7000
     number of iterations used =            8  local-TF  mixing
     Exchange-correlation      = PZ ( 1  1  0  0 0 0)
     nstep                     =           50


     celldm(1)=   6.703426  celldm(2)=   0.000000  celldm(3)=   0.000000
     celldm(4)=   0.000000  celldm(5)=   0.000000  celldm(6)=   0.000000

     crystal axes: (cart. coord. in units of alat)
               a(1) = (  -0.500000   0.000000   0.500000 )  
               a(2) = (   0.000000   0.500000   0.500000 )  
               a(3) = (  -0.500000   0.500000   0.000000 )  

     reciprocal axes: (cart. coord. in units 2 pi/alat)
               b(1) = ( -1.000000 -1.000000  1.000000 )  
               b(2) = (  1.000000  1.000000  1.000000 )  
               b(3) = ( -1.000000  1.000000 -1.000000 )  


     PseudoPot. # 1 for  C read from file:
     ../C.pz-mt.fhi.UPF
     MD5 check sum: b7c38bc33a0cf75f44be89b84470f298
     Pseudo is Norm-conserving, Zval =  4.0
     Generated using FHI98PP, converted with fhi2upf.x v.5.0.2
     Using radial grid of  461 points,  2 beta functions with: 
                l(1) =   0
                l(2) =   1

     atomic species   valence    mass     pseudopotential
        C              4.00    12.01100      C( 1.00)

     48 Sym. Ops., with inversion, found (24 have fractional translation)



   Cartesian axes

     site n.     atom                  positions (alat units)
         1           C   tau(   1) = (   0.0000000   0.0000000   0.0000000  )
         2           C   tau(   2) = (  -0.2500000   0.2500000   0.2500000  )

     number of k points=    35
                       cart. coord. in units 2pi/alat
        k(    1) = (   0.0000000   0.0000000   0.0000000), wk =   0.0027435
        k(    2) = (  -0.1111111   0.1111111  -0.1111111), wk =   0.0219479
        k(    3) = (  -0.2222222   0.2222222  -0.2222222), wk =   0.0219479
        k(    4) = (  -0.3333333   0.3333333  -0.3333333), wk =   0.0219479
        k(    5) = (  -0.4444444   0.4444444  -0.4444444), wk =   0.0219479
        k(    6) = (   0.0000000   0.2222222   0.0000000), wk =   0.0164609
        k(    7) = (  -0.1111111   0.3333333  -0.1111111), wk =   0.0658436
        k(    8) = (  -0.2222222   0.4444444  -0.2222222), wk =   0.0658436
        k(    9) = (  -0.3333333   0.5555556  -0.3333333), wk =   0.0658436
        k(   10) = (   0.5555556  -0.3333333   0.5555556), wk =   0.0658436
        k(   11) = (   0.4444444  -0.2222222   0.4444444), wk =   0.0658436
        k(   12) = (   0.3333333  -0.1111111   0.3333333), wk =   0.0658436
        k(   13) = (   0.2222222  -0.0000000   0.2222222), wk =   0.0329218
        k(   14) = (   0.0000000   0.4444444   0.0000000), wk =   0.0164609
        k(   15) = (  -0.1111111   0.5555556  -0.1111111), wk =   0.0658436
        k(   16) = (  -0.2222222   0.6666667  -0.2222222), wk =   0.0658436
        k(   17) = (   0.6666667  -0.2222222   0.6666667), wk =   0.0658436
        k(   18) = (   0.5555556  -0.1111111   0.5555556), wk =   0.0658436
        k(   19) = (   0.4444444   0.0000000   0.4444444), wk =   0.0329218
        k(   20) = (   0.0000000   0.6666667   0.0000000), wk =   0.0164609
        k(   21) = (  -0.1111111   0.7777778  -0.1111111), wk =   0.0658436
        k(   22) = (   0.7777778  -0.1111111   0.7777778), wk =   0.0658436
        k(   23) = (   0.6666667  -0.0000000   0.6666667), wk =   0.0329218
        k(   24) = (   0.0000000   0.8888889   0.0000000), wk =   0.0164609
        k(   25) = (   0.8888889   0.0000000   0.8888889), wk =   0.0329218
        k(   26) = (  -0.2222222   0.4444444   0.0000000), wk =   0.0658436
        k(   27) = (  -0.3333333   0.5555556  -0.1111111), wk =   0.1316872
        k(   28) = (   0.5555556  -0.3333333   0.7777778), wk =   0.1316872
        k(   29) = (  -0.2222222   0.6666667   0.0000000), wk =   0.0658436
        k(   30) = (   0.6666667  -0.2222222   0.8888889), wk =   0.1316872
        k(   31) = (   0.5555556  -0.1111111   0.7777778), wk =   0.1316872
        k(   32) = (   0.4444444   0.0000000   0.6666667), wk =   0.0658436
        k(   33) = (   0.7777778  -0.1111111   1.0000000), wk =   0.0658436
        k(   34) = (   0.6666667  -0.0000000   0.8888889), wk =   0.0658436
        k(   35) = (   0.5555556  -0.1111111   1.0000000), wk =   0.0658436

     Dense  grid:    10081 G-vectors     FFT dimensions: (  32,  32,  32)

     Estimated max dynamical RAM per process >       0.42MB

     Estimated total allocated dynamical RAM >      16.92MB

     Initial potential from superposition of free atoms

     starting charge    7.99993, renormalised to    8.00000
     Starting wfc are   18 randomized atomic wfcs

     total cpu time spent up to now is        0.6 secs

     per-process dynamical memory:    18.4 Mb

     Self-consistent Calculation

     iteration #  1     ecut=   100.00 Ry     beta=0.70
     Davidson diagonalization with overlap
     ethr =  1.00E-02,  avg # of iterations =  2.9

     total cpu time spent up to now is        1.1 secs

     total energy              =     -22.89680131 Ry
     Harris-Foulkes estimate   =     -22.94674495 Ry
     estimated scf accuracy    <       0.12990563 Ry

     iteration #  2     ecut=   100.00 Ry     beta=0.70
     Davidson diagonalization with overlap
     ethr =  1.62E-03,  avg # of iterations =  1.4

     total cpu time spent up to now is        1.4 secs

     total energy              =     -22.88678270 Ry
     Harris-Foulkes estimate   =     -22.90106516 Ry
     estimated scf accuracy    <       0.02652675 Ry

     iteration #  3     ecut=   100.00 Ry     beta=0.70
     Davidson diagonalization with overlap
     ethr =  3.32E-04,  avg # of iterations =  2.1

     total cpu time spent up to now is        1.7 secs

     total energy              =     -22.88994544 Ry
     Harris-Foulkes estimate   =     -22.88990402 Ry
     estimated scf accuracy    <       0.00012106 Ry

     iteration #  4     ecut=   100.00 Ry     beta=0.70
     Davidson diagonalization with overlap
     ethr =  1.51E-06,  avg # of iterations =  2.1

     total cpu time spent up to now is        2.1 secs

     total energy              =     -22.88997477 Ry
     Harris-Foulkes estimate   =     -22.88997728 Ry
     estimated scf accuracy    <       0.00000888 Ry

     iteration #  5     ecut=   100.00 Ry     beta=0.70
     Davidson diagonalization with overlap
     ethr =  1.11E-07,  avg # of iterations =  2.0

     total cpu time spent up to now is        2.4 secs

     total energy              =     -22.88997555 Ry
     Harris-Foulkes estimate   =     -22.88997567 Ry
     estimated scf accuracy    <       0.00000023 Ry

     iteration #  6     ecut=   100.00 Ry     beta=0.70
     Davidson diagonalization with overlap
     ethr =  2.88E-09,  avg # of iterations =  2.1

     total cpu time spent up to now is        2.8 secs

     total energy              =     -22.88997558 Ry
     Harris-Foulkes estimate   =     -22.88997558 Ry
     estimated scf accuracy    <          9.9E-10 Ry

     iteration #  7     ecut=   100.00 Ry     beta=0.70
     Davidson diagonalization with overlap
     ethr =  1.24E-11,  avg # of iterations =  2.8

     total cpu time spent up to now is        3.2 secs

     total energy              =     -22.88997558 Ry
     Harris-Foulkes estimate   =     -22.88997558 Ry
     estimated scf accuracy    <          5.5E-10 Ry

     iteration #  8     ecut=   100.00 Ry     beta=0.70
     Davidson diagonalization with overlap
     ethr =  6.83E-12,  avg # of iterations =  2.2

     total cpu time spent up to now is        3.6 secs

     total energy              =     -22.88997558 Ry
     Harris-Foulkes estimate   =     -22.88997558 Ry
     estimated scf accuracy    <          2.1E-12 Ry

     iteration #  9     ecut=   100.00 Ry     beta=0.70
     Davidson diagonalization with overlap
     ethr =  1.00E-13,  avg # of iterations =  2.0

     total cpu time spent up to now is        4.0 secs

     total energy              =     -22.88997558 Ry
     Harris-Foulkes estimate   =     -22.88997558 Ry
     estimated scf accuracy    <          7.9E-14 Ry

     iteration # 10     ecut=   100.00 Ry     beta=0.70
     Davidson diagonalization with overlap
     ethr =  1.00E-13,  avg # of iterations =  1.0

     total cpu time spent up to now is        4.2 secs

     total energy              =     -22.88997558 Ry
     Harris-Foulkes estimate   =     -22.88997558 Ry
     estimated scf accuracy    <          4.4E-15 Ry

     iteration # 11     ecut=   100.00 Ry     beta=0.70
     Davidson diagonalization with overlap
     ethr =  1.00E-13,  avg # of iterations =  1.0

     total cpu time spent up to now is        4.4 secs

     End of self-consistent calculation

          k = 0.0000 0.0000 0.0000 (  1243 PWs)   bands (ev):

    -8.1912  13.2947  13.2947  13.2947  18.8996  18.8996  18.8996  27.0690

          k =-0.1111 0.1111-0.1111 (  1279 PWs)   bands (ev):

    -7.8446  11.3120  12.7545  12.7545  19.6083  19.6083  20.0317  27.2930

          k =-0.2222 0.2222-0.2222 (  1290 PWs)   bands (ev):

    -6.8129   7.6788  11.7670  11.7670  20.8556  20.8556  21.3978  27.8955

          k =-0.3333 0.3333-0.3333 (  1272 PWs)   bands (ev):

    -5.1280   3.9402  10.9589  10.9589  21.5942  21.5942  22.1571  28.5469

          k =-0.4444 0.4444-0.4444 (  1266 PWs)   bands (ev):

    -2.9522   0.6701  10.5301  10.5301  21.7647  21.7647  22.4770  28.8511

          k = 0.0000 0.2222 0.0000 (  1287 PWs)   bands (ev):

    -7.7293  11.8342  11.8342  12.2786  18.5792  20.7453  20.7453  27.0459

          k =-0.1111 0.3333-0.1111 (  1280 PWs)   bands (ev):

    -6.9264   8.9655  10.7666  11.6905  19.1120  22.2128  22.2179  26.6694

          k =-0.2222 0.4444-0.2222 (  1285 PWs)   bands (ev):

    -5.4582   5.3408  10.0398  10.6805  20.2379  23.0610  23.1211  26.8486

          k =-0.3333 0.5556-0.3333 (  1269 PWs)   bands (ev):

    -3.4103   1.9144   9.7489   9.8046  20.8898  23.0570  23.5131  28.0296

          k = 0.5556-0.3333 0.5556 (  1269 PWs)   bands (ev):

    -2.0785   0.2273   9.1660  10.0753  21.3439  22.6358  23.5679  28.8834

          k = 0.4444-0.2222 0.4444 (  1272 PWs)   bands (ev):

    -4.1451   3.0121   9.0495  10.7894  21.8462  22.0132  23.3021  28.3219

          k = 0.3333-0.1111 0.3333 (  1282 PWs)   bands (ev):

    -6.0194   6.5742   9.4506  11.7920  21.0033  22.0001  22.4879  27.4921

          k = 0.2222-0.0000 0.2222 (  1283 PWs)   bands (ev):

    -7.2698   9.9327  10.5390  12.7005  19.8230  21.0000  21.2770  27.3466

          k = 0.0000 0.4444 0.0000 (  1299 PWs)   bands (ev):

    -6.3561   9.6210   9.6210   9.7104  17.9373  24.0621  24.0621  24.5566

          k =-0.1111 0.5556-0.1111 (  1278 PWs)   bands (ev):

    -5.1178   6.7663   8.8343   8.9810  18.4986  23.4379  25.3741  25.3936

          k =-0.2222 0.6667-0.2222 (  1268 PWs)   bands (ev):

    -3.2688   3.5910   7.7110   8.5835  19.4441  24.4974  25.6351  25.9817

          k = 0.6667-0.2222 0.6667 (  1264 PWs)   bands (ev):

    -1.2673   1.0167   6.6586   8.9000  20.0381  25.0786  26.1146  27.2455

          k = 0.5556-0.1111 0.5556 (  1273 PWs)   bands (ev):

    -2.5707   2.6739   6.1168   9.7199  20.8313  24.0085  25.9190  28.2789

          k = 0.4444 0.0000 0.4444 (  1283 PWs)   bands (ev):

    -4.5731   5.5972   6.4996  10.8459  21.7322  22.4619  24.6633  27.1698

          k = 0.0000 0.6667 0.0000 (  1267 PWs)   bands (ev):

    -4.1147   6.2604   7.9332   7.9332  17.5104  21.0738  27.3837  27.3837

          k =-0.1111 0.7778-0.1111 (  1273 PWs)   bands (ev):

    -2.4918   4.2367   6.5554   7.5652  18.2159  20.7323  28.2470  28.4005

          k = 0.7778-0.1111 0.7778 (  1265 PWs)   bands (ev):

    -0.4548   2.2410   4.6502   7.7906  18.9004  23.2549  27.7934  28.6536

          k = 0.6667-0.0000 0.6667 (  1276 PWs)   bands (ev):

    -0.6169   2.4567   3.8025   8.5673  19.6843  26.2616  26.9142  28.4184

          k = 0.0000 0.8889 0.0000 (  1274 PWs)   bands (ev):

    -1.1027   2.4795   7.0486   7.0486  17.6901  18.7797  29.7790  29.7790

          k = 0.8889 0.0000 0.8889 (  1264 PWs)   bands (ev):

     0.7249   0.8397   5.8759   7.1285  18.2851  19.6443  29.5989  29.8810

          k =-0.2222 0.4444 0.0000 (  1277 PWs)   bands (ev):

    -5.9052   7.6557   8.4566  10.9813  19.6450  23.1027  24.0278  25.6414

          k =-0.3333 0.5556-0.1111 (  1271 PWs)   bands (ev):

    -4.2430   4.5489   7.6437   9.9208  20.9148  22.9891  25.3173  26.1211

          k = 0.5556-0.3333 0.7778 (  1260 PWs)   bands (ev):

    -2.1169   1.4609   7.5353   9.0698  21.4526  22.7559  25.8445  27.9285

          k =-0.2222 0.6667 0.0000 (  1272 PWs)   bands (ev):

    -3.6858   5.4824   6.8591   8.1822  19.2813  22.4662  25.7772  27.4410

          k = 0.6667-0.2222 0.8889 (  1268 PWs)   bands (ev):

    -1.7132   3.0856   5.8162   7.4107  20.4661  23.6668  25.6132  28.3009

          k = 0.5556-0.1111 0.7778 (  1267 PWs)   bands (ev):

    -0.5051   1.7395   5.0112   7.7109  21.0951  24.5245  27.0773  27.5545

          k = 0.4444 0.0000 0.6667 (  1266 PWs)   bands (ev):

    -2.4434   3.8956   5.0246   8.7187  21.9700  23.0169  26.2086  27.6558

          k = 0.7778-0.1111 1.0000 (  1274 PWs)   bands (ev):

    -0.7362   2.6135   6.0883   6.3666  19.4379  20.4164  28.3166  29.4152

          k = 0.6667-0.0000 0.8889 (  1266 PWs)   bands (ev):

     0.8702   1.5276   4.3064   6.6592  20.2855  23.1961  27.4822  28.2708

          k = 0.5556-0.1111 1.0000 (  1253 PWs)   bands (ev):

     0.2048   2.4316   4.5450   5.8553  23.2368  23.2752  25.5007  27.4128

     highest occupied, lowest unoccupied level (ev):    13.2947   17.5104

!    total energy              =     -22.88997558 Ry
     Harris-Foulkes estimate   =     -22.88997558 Ry
     estimated scf accuracy    <          8.6E-17 Ry

     The total energy is the sum of the following terms:

     one-electron contribution =       8.01359929 Ry
     hartree contribution      =       1.90800535 Ry
     xc contribution           =      -7.09673680 Ry
     ewald contribution        =     -25.71484342 Ry

     convergence has been achieved in  11 iterations

     Forces acting on atoms (cartesian axes, Ry/au):

     atom    1 type  1   force =     0.00000000    0.00000000    0.00000000
     atom    2 type  1   force =     0.00000000    0.00000000    0.00000000

     Total force =     0.000000     Total SCF correction =     0.000000


     Computing stress (Cartesian axis) and pressure

          total   stress  (Ry/bohr**3)                   (kbar)     P= -105.33
  -0.00071602  -0.00000000  -0.00000000       -105.33     -0.00     -0.00
   0.00000000  -0.00071602  -0.00000000          0.00   -105.33     -0.00
  -0.00000000  -0.00000000  -0.00071602         -0.00     -0.00   -105.33


     BFGS Geometry Optimization

     number of scf cycles    =   1
     number of bfgs steps    =   0

     enthalpy new            =     -22.8899755840 Ry

     new trust radius        =       0.0310679617 bohr
     new conv_thr            =            1.0E-15 Ry

     new unit-cell volume =     71.33402 a.u.^3 (    10.57061 Ang^3 )
     density =      3.77362 g/cm^3

CELL_PARAMETERS (alat=  6.70342551)
  -0.491049700  -0.000000000   0.491049700
  -0.000000000   0.491049700   0.491049700
  -0.491049700   0.491049700   0.000000000

ATOMIC_POSITIONS (crystal)
C        0.000000000   0.000000000   0.000000000
C        0.250000000   0.250000000   0.250000000



     Writing output data file c.save
     NEW-OLD atomic charge density approx. for the potential
     extrapolated charge    7.55454, renormalised to    8.00000

     total cpu time spent up to now is        4.6 secs

     per-process dynamical memory:    19.8 Mb

     Self-consistent Calculation

     iteration #  1     ecut=   100.00 Ry     beta=0.70
     Davidson diagonalization with overlap
     ethr =  1.00E-06,  avg # of iterations =  4.1

     total cpu time spent up to now is        5.1 secs

     total energy              =     -22.88666331 Ry
     Harris-Foulkes estimate   =     -22.57373130 Ry
     estimated scf accuracy    <       0.00148611 Ry

     iteration #  2     ecut=   100.00 Ry     beta=0.70
     Davidson diagonalization with overlap
     ethr =  1.86E-05,  avg # of iterations =  3.2

     total cpu time spent up to now is        5.6 secs

     total energy              =     -22.88952912 Ry
     Harris-Foulkes estimate   =     -22.88962416 Ry
     estimated scf accuracy    <       0.00032735 Ry

     iteration #  3     ecut=   100.00 Ry     beta=0.70
     Davidson diagonalization with overlap
     ethr =  4.09E-06,  avg # of iterations =  1.0

     total cpu time spent up to now is        5.9 secs

     total energy              =     -22.88947263 Ry
     Harris-Foulkes estimate   =     -22.88953514 Ry
     estimated scf accuracy    <       0.00012053 Ry

     iteration #  4     ecut=   100.00 Ry     beta=0.70
     Davidson diagonalization with overlap
     ethr =  1.51E-06,  avg # of iterations =  2.0

     total cpu time spent up to now is        6.2 secs

     total energy              =     -22.88948364 Ry
     Harris-Foulkes estimate   =     -22.88948422 Ry
     estimated scf accuracy    <       0.00000109 Ry

     iteration #  5     ecut=   100.00 Ry     beta=0.70
     Davidson diagonalization with overlap
     ethr =  1.36E-08,  avg # of iterations =  2.7

     total cpu time spent up to now is        6.6 secs

     total energy              =     -22.88948397 Ry
     Harris-Foulkes estimate   =     -22.88948405 Ry
     estimated scf accuracy    <       0.00000015 Ry

     iteration #  6     ecut=   100.00 Ry     beta=0.70
     Davidson diagonalization with overlap
     ethr =  1.82E-09,  avg # of iterations =  2.1

     total cpu time spent up to now is        7.0 secs

     total energy              =     -22.88948398 Ry
     Harris-Foulkes estimate   =     -22.88948398 Ry
     estimated scf accuracy    <          2.9E-09 Ry

     iteration #  7     ecut=   100.00 Ry     beta=0.70
     Davidson diagonalization with overlap
     ethr =  3.64E-11,  avg # of iterations =  2.3

     total cpu time spent up to now is        7.4 secs

     total energy              =     -22.88948398 Ry
     Harris-Foulkes estimate   =     -22.88948398 Ry
     estimated scf accuracy    <          3.2E-11 Ry

     iteration #  8     ecut=   100.00 Ry     beta=0.70
     Davidson diagonalization with overlap
     ethr =  3.96E-13,  avg # of iterations =  2.3

     total cpu time spent up to now is        7.7 secs

     total energy              =     -22.88948398 Ry
     Harris-Foulkes estimate   =     -22.88948398 Ry
     estimated scf accuracy    <          2.0E-12 Ry

     iteration #  9     ecut=   100.00 Ry     beta=0.70
     Davidson diagonalization with overlap
     ethr =  1.00E-13,  avg # of iterations =  1.8

     total cpu time spent up to now is        8.0 secs

     total energy              =     -22.88948398 Ry
     Harris-Foulkes estimate   =     -22.88948398 Ry
     estimated scf accuracy    <          8.5E-15 Ry

     iteration # 10     ecut=   100.00 Ry     beta=0.70
     Davidson diagonalization with overlap
     ethr =  1.00E-13,  avg # of iterations =  1.0

     total cpu time spent up to now is        8.3 secs

     total energy              =     -22.88948398 Ry
     Harris-Foulkes estimate   =     -22.88948398 Ry
     estimated scf accuracy    <          9.1E-15 Ry

     iteration # 11     ecut=   100.00 Ry     beta=0.70
     Davidson diagonalization with overlap
     ethr =  1.00E-13,  avg # of iterations =  1.0

     total cpu time spent up to now is        8.5 secs

     End of self-consistent calculation

          k = 0.0000 0.0000 0.0000 (  1243 PWs)   bands (ev):

    -7.9318  14.2902  14.2902  14.2902  20.0517  20.0517  20.0517  29.3127

          k =-0.1131 0.1131-0.1131 (  1279 PWs)   bands (ev):

    -7.5724  12.2216  13.7179  13.7179  20.8025  20.8025  21.2907  29.4605

          k =-0.2263 0.2263-0.2263 (  1290 PWs)   bands (ev):

    -6.5018   8.4509  12.6792  12.6792  22.1079  22.1079  22.8535  29.8442

          k =-0.3394 0.3394-0.3394 (  1272 PWs)   bands (ev):

    -4.7490   4.5711  11.8336  11.8336  22.8520  22.8520  23.7976  30.2228

          k =-0.4525 0.4525-0.4525 (  1266 PWs)   bands (ev):

    -2.4544   1.1436  11.3862  11.3862  23.0012  23.0012  24.2217  30.3627

          k = 0.0000 0.2263 0.0000 (  1287 PWs)   bands (ev):

    -7.4529  12.7400  12.7400  13.2738  19.7329  22.0117  22.0117  29.1126

          k =-0.1131 0.3394-0.1131 (  1280 PWs)   bands (ev):

    -6.6198   9.7868  11.6173  12.6401  20.3007  23.5605  23.6131  28.4290

          k =-0.2263 0.4525-0.2263 (  1285 PWs)   bands (ev):

    -5.0941   6.0290  10.8580  11.5786  21.4667  24.4212  24.6844  28.4315

          k =-0.3394 0.5657-0.3394 (  1269 PWs)   bands (ev):

    -2.9513   2.4591  10.5989  10.6162  22.1139  24.3816  25.2047  29.5957

          k = 0.5657-0.3394 0.5657 (  1269 PWs)   bands (ev):

    -1.5047   0.6445   9.9829  10.9046  22.5779  23.9273  25.2954  30.4736

          k = 0.4525-0.2263 0.4525 (  1272 PWs)   bands (ev):

    -3.7237   3.6070   9.8539  11.6574  23.1376  23.2915  24.9428  29.9880

          k = 0.3394-0.1131 0.3394 (  1282 PWs)   bands (ev):

    -5.6777   7.3101  10.2647  12.7127  22.2553  23.3581  23.9546  29.2900

          k = 0.2263-0.0000 0.2263 (  1283 PWs)   bands (ev):

    -6.9761  10.8078  11.3814  13.6688  21.0207  22.3121  22.6109  29.3535

          k = 0.0000 0.4525 0.0000 (  1299 PWs)   bands (ev):

    -6.0281  10.4116  10.4116  10.6637  19.0893  25.5140  25.5140  25.9962

          k =-0.1131 0.5657-0.1131 (  1278 PWs)   bands (ev):

    -4.7419   7.5360   9.5879   9.8159  19.6758  24.7431  26.8878  26.9849

          k =-0.2263 0.6788-0.2263 (  1268 PWs)   bands (ev):

    -2.8137   4.2295   8.4869   9.3281  20.6305  25.8516  27.1346  27.7164

          k = 0.6788-0.2263 0.6788 (  1264 PWs)   bands (ev):

    -0.6670   1.4855   7.3840   9.6635  21.2267  26.5333  27.8796  28.8049

          k = 0.5657-0.1131 0.5657 (  1273 PWs)   bands (ev):

    -2.0767   3.2626   6.8088  10.5277  22.0625  25.4166  27.6313  30.0520

          k = 0.4525 0.0000 0.4525 (  1283 PWs)   bands (ev):

    -4.1732   6.3439   7.1641  11.7147  23.0489  23.7963  26.1861  28.9774

          k = 0.0000 0.6788 0.0000 (  1267 PWs)   bands (ev):

    -3.7004   7.0998   8.6426   8.6426  18.6532  22.2679  29.0289  29.0289

          k =-0.1131 0.7920-0.1131 (  1273 PWs)   bands (ev):

    -2.0108   5.0003   7.1966   8.2583  19.3716  21.9328  29.9374  30.1551

          k = 0.7920-0.1131 0.7920 (  1265 PWs)   bands (ev):

     0.1370   2.9027   5.2010   8.4964  20.0519  24.6064  29.4455  30.4874

          k = 0.6788 0.0000 0.6788 (  1276 PWs)   bands (ev):

    -0.0131   3.1150   4.3051   9.3134  20.8600  27.8176  28.5389  30.2910

          k = 0.0000 0.9051 0.0000 (  1274 PWs)   bands (ev):

    -0.5675   3.1640   7.7168   7.7168  18.8217  19.9140  31.5891  31.5891

          k = 0.9051 0.0000 0.9051 (  1264 PWs)   bands (ev):

     1.3523   1.4526   6.4818   7.8011  19.4184  20.8388  31.3927  31.7309

          k =-0.2263 0.4525 0.0000 (  1277 PWs)   bands (ev):

    -5.5595   8.4651   9.2023  11.8792  20.8652  24.5118  25.4887  27.2114

          k =-0.3394 0.5657-0.1131 (  1271 PWs)   bands (ev):

    -3.8295   5.2184   8.3927  10.7517  22.1722  24.3508  26.9545  27.6693

          k = 0.5657-0.3394 0.7920 (  1260 PWs)   bands (ev):

    -1.5872   1.9768   8.3023   9.8409  22.6477  24.1933  27.5658  29.5481

          k =-0.2263 0.6788 0.0000 (  1272 PWs)   bands (ev):

    -3.2523   6.2707   7.5294   8.9132  20.4930  23.6982  27.4077  29.1010

          k = 0.6788-0.2263 0.9051 (  1268 PWs)   bands (ev):

    -1.1870   3.7415   6.4895   8.0833  21.6874  24.9512  27.2949  30.0591

          k = 0.5657-0.1131 0.7920 (  1267 PWs)   bands (ev):

     0.1217   2.2782   5.6494   8.4085  22.3072  25.9727  28.7801  29.3067

          k = 0.4525 0.0000 0.6788 (  1266 PWs)   bands (ev):

    -1.9496   4.6064   5.6152   9.4763  23.2127  24.3911  27.9196  29.3753

          k = 0.7920-0.1131 1.0182 (  1274 PWs)   bands (ev):

    -0.1782   3.3235   6.7139   6.9853  20.6372  21.6140  30.0569  31.2219

          k = 0.6788-0.0000 0.9051 (  1266 PWs)   bands (ev):

     1.5550   2.1763   4.8015   7.3047  21.4869  24.5326  29.1604  30.0539

          k = 0.5657-0.1131 1.0182 (  1253 PWs)   bands (ev):

     0.8360   3.1507   5.0771   6.4351  24.4830  24.5746  27.2256  29.1191

     highest occupied, lowest unoccupied level (ev):    14.2902   18.6532

!    total energy              =     -22.88948398 Ry
     Harris-Foulkes estimate   =     -22.88948398 Ry
     estimated scf accuracy    <          1.3E-17 Ry

     The total energy is the sum of the following terms:

     one-electron contribution =       8.62656672 Ry
     hartree contribution      =       1.85572363 Ry
     xc contribution           =      -7.18822976 Ry
     ewald contribution        =     -26.18354458 Ry

     convergence has been achieved in  11 iterations

     Forces acting on atoms (cartesian axes, Ry/au):

     atom    1 type  1   force =     0.00000000    0.00000000    0.00000000
     atom    2 type  1   force =     0.00000000    0.00000000    0.00000000

     Total force =     0.000000     Total SCF correction =     0.000000


     Computing stress (Cartesian axis) and pressure

          total   stress  (Ry/bohr**3)                   (kbar)     P=  150.94
   0.00102608  -0.00000000   0.00000000        150.94     -0.00      0.00
  -0.00000000   0.00102608  -0.00000000         -0.00    150.94     -0.00
   0.00000000  -0.00000000   0.00102608          0.00     -0.00    150.94


     number of scf cycles    =   2
     number of bfgs steps    =   1

     enthalpy old            =     -22.8899755840 Ry
     enthalpy new            =     -22.8894839820 Ry

     CASE: enthalpy_new > enthalpy_old

     new trust radius        =       0.0131600988 bohr
     new conv_thr            =            1.0E-15 Ry

     new unit-cell volume =     73.59076 a.u.^3 (    10.90502 Ang^3 )
     density =      3.65790 g/cm^3

CELL_PARAMETERS (alat=  6.70342551)
  -0.496174341  -0.000000000   0.496174341
  -0.000000000   0.496174341   0.496174341
  -0.496174341   0.496174341   0.000000000

ATOMIC_POSITIONS (crystal)
C        0.000000000   0.000000000   0.000000000
C        0.250000000   0.250000000   0.250000000



     Writing output data file c.save
     NEW-OLD atomic charge density approx. for the potential
     extrapolated charge    8.24533, renormalised to    8.00000

     total cpu time spent up to now is        8.6 secs

     per-process dynamical memory:    21.0 Mb

     Self-consistent Calculation

     iteration #  1     ecut=   100.00 Ry     beta=0.70
     Davidson diagonalization with overlap
     ethr =  1.00E-06,  avg # of iterations =  3.9

     total cpu time spent up to now is        9.1 secs

     total energy              =     -22.88973966 Ry
     Harris-Foulkes estimate   =     -23.06134781 Ry
     estimated scf accuracy    <       0.00037662 Ry

     iteration #  2     ecut=   100.00 Ry     beta=0.70
     Davidson diagonalization with overlap
     ethr =  4.71E-06,  avg # of iterations =  3.4

     total cpu time spent up to now is        9.7 secs

     total energy              =     -22.89062947 Ry
     Harris-Foulkes estimate   =     -22.89066790 Ry
     estimated scf accuracy    <       0.00012791 Ry

     iteration #  3     ecut=   100.00 Ry     beta=0.70
     Davidson diagonalization with overlap
     ethr =  1.60E-06,  avg # of iterations =  1.0

     total cpu time spent up to now is        9.9 secs

     total energy              =     -22.89060321 Ry
     Harris-Foulkes estimate   =     -22.89063146 Ry
     estimated scf accuracy    <       0.00005209 Ry

     iteration #  4     ecut=   100.00 Ry     beta=0.70
     Davidson diagonalization with overlap
     ethr =  6.51E-07,  avg # of iterations =  2.0

     total cpu time spent up to now is       10.2 secs

     total energy              =     -22.89060759 Ry
     Harris-Foulkes estimate   =     -22.89060802 Ry
     estimated scf accuracy    <       0.00000076 Ry

     iteration #  5     ecut=   100.00 Ry     beta=0.70
     Davidson diagonalization with overlap
     ethr =  9.47E-09,  avg # of iterations =  2.7

     total cpu time spent up to now is       10.6 secs

     total energy              =     -22.89060778 Ry
     Harris-Foulkes estimate   =     -22.89060782 Ry
     estimated scf accuracy    <       0.00000006 Ry

     iteration #  6     ecut=   100.00 Ry     beta=0.70
     Davidson diagonalization with overlap
     ethr =  7.88E-10,  avg # of iterations =  2.1

     total cpu time spent up to now is       11.0 secs

     total energy              =     -22.89060779 Ry
     Harris-Foulkes estimate   =     -22.89060779 Ry
     estimated scf accuracy    <          1.7E-09 Ry

     iteration #  7     ecut=   100.00 Ry     beta=0.70
     Davidson diagonalization with overlap
     ethr =  2.18E-11,  avg # of iterations =  2.4

     total cpu time spent up to now is       11.4 secs

     total energy              =     -22.89060779 Ry
     Harris-Foulkes estimate   =     -22.89060779 Ry
     estimated scf accuracy    <          9.9E-12 Ry

     iteration #  8     ecut=   100.00 Ry     beta=0.70
     Davidson diagonalization with overlap
     ethr =  1.24E-13,  avg # of iterations =  2.1

     total cpu time spent up to now is       11.7 secs

     total energy              =     -22.89060779 Ry
     Harris-Foulkes estimate   =     -22.89060779 Ry
     estimated scf accuracy    <          1.6E-12 Ry

     iteration #  9     ecut=   100.00 Ry     beta=0.70
     Davidson diagonalization with overlap
     ethr =  1.00E-13,  avg # of iterations =  1.1

     total cpu time spent up to now is       12.0 secs

     total energy              =     -22.89060779 Ry
     Harris-Foulkes estimate   =     -22.89060779 Ry
     estimated scf accuracy    <          5.1E-15 Ry

     iteration # 10     ecut=   100.00 Ry     beta=0.70
     Davidson diagonalization with overlap
     ethr =  1.00E-13,  avg # of iterations =  1.0

     total cpu time spent up to now is       12.2 secs

     total energy              =     -22.89060779 Ry
     Harris-Foulkes estimate   =     -22.89060779 Ry
     estimated scf accuracy    <          3.8E-15 Ry

     iteration # 11     ecut=   100.00 Ry     beta=0.70
     Davidson diagonalization with overlap
     ethr =  1.00E-13,  avg # of iterations =  1.0

     total cpu time spent up to now is       12.4 secs

     End of self-consistent calculation

          k = 0.0000 0.0000 0.0000 (  1243 PWs)   bands (ev):

    -8.0827  13.7129  13.7129  13.7129  19.3842  19.3842  19.3842  28.0131

          k =-0.1120 0.1120-0.1120 (  1279 PWs)   bands (ev):

    -7.7307  11.6944  13.1593  13.1593  20.1106  20.1106  20.5612  28.2059

          k =-0.2239 0.2239-0.2239 (  1290 PWs)   bands (ev):

    -6.6825   8.0034  12.1502  12.1502  21.3824  21.3824  22.0109  28.7179

          k =-0.3359 0.3359-0.3359 (  1272 PWs)   bands (ev):

    -4.9688   4.2052  11.3264  11.3264  22.1236  22.1236  22.8479  29.2556

          k =-0.4479 0.4479-0.4479 (  1266 PWs)   bands (ev):

    -2.7427   0.8684  10.8897  10.8897  22.2854  22.2854  23.2108  29.4900

          k = 0.0000 0.2239 0.0000 (  1287 PWs)   bands (ev):

    -7.6136  12.2148  12.2148  12.6970  19.0644  21.2779  21.2779  27.9199

          k =-0.1120 0.3359-0.1120 (  1280 PWs)   bands (ev):

    -6.7979   9.3110  11.1241  12.0893  19.6119  22.7825  22.8023  27.4168

          k =-0.2239 0.4479-0.2239 (  1285 PWs)   bands (ev):

    -5.3054   5.6301  10.3836  11.0577  20.7553  23.6333  23.7801  27.5170

          k =-0.3359 0.5598-0.3359 (  1269 PWs)   bands (ev):

    -3.2172   2.1429  10.1060  10.1456  21.4065  23.6147  24.2243  28.6895

          k = 0.5598-0.3359 0.5598 (  1269 PWs)   bands (ev):

    -1.8376   0.4027   9.5092  10.4237  21.8654  23.1796  24.2928  29.5541

          k = 0.4479-0.2239 0.4479 (  1272 PWs)   bands (ev):

    -3.9680   3.2619   9.3875  11.1540  22.3926  22.5513  23.9905  29.0242

          k = 0.3359-0.1120 0.3359 (  1282 PWs)   bands (ev):

    -5.8761   6.8837   9.7926  12.1787  21.5300  22.5744  23.1031  28.2508

          k = 0.2239-0.0000 0.2239 (  1283 PWs)   bands (ev):

    -7.1468  10.3008  10.8929  13.1072  20.3268  21.5515  21.8386  28.1939

          k = 0.0000 0.4479 0.0000 (  1299 PWs)   bands (ev):

    -6.2186   9.9532   9.9532  10.1113  18.4214  24.6726  24.6726  25.1689

          k =-0.1120 0.5598-0.1120 (  1278 PWs)   bands (ev):

    -4.9600   7.0906   9.1510   9.3311  18.9935  23.9919  26.0107  26.0613

          k =-0.2239 0.6718-0.2239 (  1268 PWs)   bands (ev):

    -3.0775   3.8596   8.0366   8.8964  19.9438  25.0716  26.2661  26.7073

          k = 0.6718-0.2239 0.6718 (  1264 PWs)   bands (ev):

    -1.0152   1.2142   6.9630   9.2208  20.5394  25.6909  26.8602  27.8981

          k = 0.5598-0.1120 0.5598 (  1273 PWs)   bands (ev):

    -2.3628   2.9214   6.4070  10.0593  21.3511  24.6010  26.6392  29.0240

          k = 0.4479 0.0000 0.4479 (  1283 PWs)   bands (ev):

    -4.4051   5.9114   6.7783  11.2109  22.2884  23.0233  25.3037  27.9296

          k = 0.0000 0.6718 0.0000 (  1267 PWs)   bands (ev):

    -3.9407   6.6134   8.2313   8.2313  17.9906  21.5784  28.0754  28.0754

          k =-0.1120 0.7838-0.1120 (  1273 PWs)   bands (ev):

    -2.2896   4.5578   6.8247   7.8564  18.7019  21.2387  28.9579  29.1376

          k = 0.7838-0.1120 0.7838 (  1265 PWs)   bands (ev):

    -0.2058   2.5194   4.8811   8.0871  19.3854  23.8248  28.4883  29.4231

          k = 0.6718 0.0000 0.6718 (  1276 PWs)   bands (ev):

    -0.3629   2.7336   4.0131   8.8808  20.1799  26.9161  27.6009  29.2041

          k = 0.0000 0.8957 0.0000 (  1274 PWs)   bands (ev):

    -0.8776   2.7675   7.3293   7.3293  18.1658  19.2574  30.5398  30.5398

          k = 0.8957 0.0000 0.8957 (  1264 PWs)   bands (ev):

     0.9888   1.0975   6.1303   7.4111  18.7620  20.1471  30.3529  30.6581

          k =-0.2239 0.4479 0.0000 (  1277 PWs)   bands (ev):

    -5.7601   7.9964   8.7697  11.3583  20.1581  23.6979  24.6420  26.3051

          k =-0.3359 0.5598-0.1120 (  1271 PWs)   bands (ev):

    -4.0693   4.8305   7.9582  10.2697  21.4443  23.5648  26.0065  26.7712

          k = 0.5598-0.3359 0.7838 (  1260 PWs)   bands (ev):

    -1.8940   1.6775   7.8573   9.3937  21.9565  23.3627  26.5666  28.6101

          k =-0.2239 0.6718 0.0000 (  1272 PWs)   bands (ev):

    -3.5036   5.8142   7.1405   8.4891  19.7907  22.9876  26.4619  28.1389

          k = 0.6718-0.2239 0.8957 (  1268 PWs)   bands (ev):

    -1.4918   3.3619   6.0980   7.6934  20.9807  24.2085  26.3201  29.0392

          k = 0.5598-0.1120 0.7838 (  1267 PWs)   bands (ev):

    -0.2418   1.9671   5.2783   8.0039  21.6065  25.1351  27.7942  28.2890

          k = 0.4479 0.0000 0.6718 (  1266 PWs)   bands (ev):

    -2.2357   4.1947   5.2721   9.0369  22.4950  23.5952  26.9276  28.3788

          k = 0.7838-0.1120 1.0077 (  1274 PWs)   bands (ev):

    -0.5015   2.9120   6.3509   6.6266  19.9425  20.9213  29.0478  30.1744

          k = 0.6718-0.0000 0.8957 (  1266 PWs)   bands (ev):

     1.1577   1.8005   4.5146   6.9303  20.7918  23.7597  28.1872  29.0197

          k = 0.5598-0.1120 1.0077 (  1253 PWs)   bands (ev):

     0.4703   2.7338   4.7682   6.0990  23.7839  23.8008  26.2261  28.1295

     highest occupied, lowest unoccupied level (ev):    13.7129   17.9906

!    total energy              =     -22.89060779 Ry
     Harris-Foulkes estimate   =     -22.89060779 Ry
     estimated scf accuracy    <          2.9E-17 Ry

     The total energy is the sum of the following terms:

     one-electron contribution =       8.27226356 Ry
     hartree contribution      =       1.88558323 Ry
     xc contribution           =      -7.13534169 Ry
     ewald contribution        =     -25.91311289 Ry

     convergence has been achieved in  11 iterations

     Forces acting on atoms (cartesian axes, Ry/au):

     atom    1 type  1   force =    -0.00000000   -0.00000000   -0.00000000
     atom    2 type  1   force =     0.00000000    0.00000000    0.00000000

     Total force =     0.000000     Total SCF correction =     0.000000


     Computing stress (Cartesian axis) and pressure

          total   stress  (Ry/bohr**3)                   (kbar)     P=   -2.41
  -0.00001639   0.00000000  -0.00000000         -2.41      0.00     -0.00
   0.00000000  -0.00001639  -0.00000000          0.00     -2.41     -0.00
  -0.00000000  -0.00000000  -0.00001639         -0.00     -0.00     -2.41


     number of scf cycles    =   3
     number of bfgs steps    =   1

     enthalpy old            =     -22.8899755840 Ry
     enthalpy new            =     -22.8906077895 Ry

     CASE: enthalpy_new < enthalpy_old

     new trust radius        =       0.0003050346 bohr
     new conv_thr            =            1.0E-17 Ry

     new unit-cell volume =     73.55151 a.u.^3 (    10.89921 Ang^3 )
     density =      3.65985 g/cm^3

CELL_PARAMETERS (alat=  6.70342551)
  -0.496086126  -0.000000000   0.496086126
  -0.000000000   0.496086126   0.496086126
  -0.496086126   0.496086126   0.000000000

ATOMIC_POSITIONS (crystal)
C        0.000000000  -0.000000000   0.000000000
C        0.250000000   0.250000000   0.250000000



     Writing output data file c.save
     NEW-OLD atomic charge density approx. for the potential
     extrapolated charge    7.99573, renormalised to    8.00000

     total cpu time spent up to now is       12.5 secs

     per-process dynamical memory:    22.1 Mb

     Self-consistent Calculation

     iteration #  1     ecut=   100.00 Ry     beta=0.70
     Davidson diagonalization with overlap
     ethr =  1.00E-06,  avg # of iterations =  1.0

     Threshold (ethr) on eigenvalues was too large:
     Diagonalizing with lowered threshold

     Davidson diagonalization with overlap
     ethr =  1.67E-09,  avg # of iterations =  2.0

     total cpu time spent up to now is       13.0 secs

     total energy              =     -22.89060784 Ry
     Harris-Foulkes estimate   =     -22.88764116 Ry
     estimated scf accuracy    <       0.00000013 Ry

     iteration #  2     ecut=   100.00 Ry     beta=0.70
     Davidson diagonalization with overlap
     ethr =  1.56E-09,  avg # of iterations =  3.3

     total cpu time spent up to now is       13.5 secs

     total energy              =     -22.89060811 Ry
     Harris-Foulkes estimate   =     -22.89060812 Ry
     estimated scf accuracy    <       0.00000004 Ry

     iteration #  3     ecut=   100.00 Ry     beta=0.70
     Davidson diagonalization with overlap
     ethr =  4.44E-10,  avg # of iterations =  1.0

     total cpu time spent up to now is       13.7 secs

     total energy              =     -22.89060810 Ry
     Harris-Foulkes estimate   =     -22.89060811 Ry
     estimated scf accuracy    <       0.00000001 Ry

     iteration #  4     ecut=   100.00 Ry     beta=0.70
     Davidson diagonalization with overlap
     ethr =  1.73E-10,  avg # of iterations =  2.0

     total cpu time spent up to now is       14.1 secs

     total energy              =     -22.89060810 Ry
     Harris-Foulkes estimate   =     -22.89060810 Ry
     estimated scf accuracy    <          1.6E-10 Ry

     iteration #  5     ecut=   100.00 Ry     beta=0.70
     Davidson diagonalization with overlap
     ethr =  2.03E-12,  avg # of iterations =  2.7

     total cpu time spent up to now is       14.5 secs

     total energy              =     -22.89060810 Ry
     Harris-Foulkes estimate   =     -22.89060810 Ry
     estimated scf accuracy    <          1.9E-11 Ry

     iteration #  6     ecut=   100.00 Ry     beta=0.70
     Davidson diagonalization with overlap
     ethr =  2.40E-13,  avg # of iterations =  2.1

     total cpu time spent up to now is       14.8 secs

     total energy              =     -22.89060810 Ry
     Harris-Foulkes estimate   =     -22.89060810 Ry
     estimated scf accuracy    <          3.7E-13 Ry

     iteration #  7     ecut=   100.00 Ry     beta=0.70
     Davidson diagonalization with overlap
     ethr =  1.00E-13,  avg # of iterations =  1.0

     total cpu time spent up to now is       15.1 secs

     total energy              =     -22.89060810 Ry
     Harris-Foulkes estimate   =     -22.89060810 Ry
     estimated scf accuracy    <          2.7E-15 Ry

     iteration #  8     ecut=   100.00 Ry     beta=0.70
     Davidson diagonalization with overlap
     ethr =  1.00E-13,  avg # of iterations =  1.0

     total cpu time spent up to now is       15.3 secs

     total energy              =     -22.89060810 Ry
     Harris-Foulkes estimate   =     -22.89060810 Ry
     estimated scf accuracy    <          2.6E-16 Ry

     iteration #  9     ecut=   100.00 Ry     beta=0.70
     Davidson diagonalization with overlap
     ethr =  1.00E-13,  avg # of iterations =  1.0

     total cpu time spent up to now is       15.5 secs

     End of self-consistent calculation

          k = 0.0000 0.0000 0.0000 (  1243 PWs)   bands (ev):

    -8.0801  13.7226  13.7226  13.7226  19.3956  19.3956  19.3956  28.0352

          k =-0.1120 0.1120-0.1120 (  1279 PWs)   bands (ev):

    -7.7280  11.7033  13.1688  13.1688  20.1223  20.1223  20.5736  28.2272

          k =-0.2240 0.2240-0.2240 (  1290 PWs)   bands (ev):

    -6.6794   8.0110  12.1592  12.1592  21.3947  21.3947  22.0252  28.7370

          k =-0.3360 0.3360-0.3360 (  1272 PWs)   bands (ev):

    -4.9651   4.2114  11.3350  11.3350  22.1360  22.1360  22.8640  29.2721

          k =-0.4480 0.4480-0.4480 (  1266 PWs)   bands (ev):

    -2.7378   0.8731  10.8981  10.8981  22.2975  22.2975  23.2280  29.5049

          k = 0.0000 0.2240 0.0000 (  1287 PWs)   bands (ev):

    -7.6109  12.2237  12.2237  12.7067  19.0757  21.2903  21.2903  27.9402

          k =-0.1120 0.3360-0.1120 (  1280 PWs)   bands (ev):

    -6.7949   9.3190  11.1324  12.0986  19.6236  22.7957  22.8160  27.4342

          k =-0.2240 0.4480-0.2240 (  1285 PWs)   bands (ev):

    -5.3018   5.6369  10.3916  11.0666  20.7674  23.6467  23.7955  27.5326

          k =-0.3360 0.5599-0.3360 (  1269 PWs)   bands (ev):

    -3.2127   2.1483  10.1143  10.1536  21.4185  23.6277  24.2409  28.7049

          k = 0.5599-0.3360 0.5599 (  1269 PWs)   bands (ev):

    -1.8320   0.4068   9.5172  10.4318  21.8775  23.1923  24.3097  29.5697

          k = 0.4480-0.2240 0.4480 (  1272 PWs)   bands (ev):

    -3.9638   3.2677   9.3954  11.1626  22.4053  22.5639  24.0066  29.0406

          k = 0.3360-0.1120 0.3360 (  1282 PWs)   bands (ev):

    -5.8727   6.8909   9.8006  12.1878  21.5423  22.5878  23.1175  28.2684

          k = 0.2240-0.0000 0.2240 (  1283 PWs)   bands (ev):

    -7.1439  10.3094  10.9012  13.1167  20.3386  21.5644  21.8517  28.2136

          k = 0.0000 0.4480 0.0000 (  1299 PWs)   bands (ev):

    -6.2153   9.9610   9.9610  10.1207  18.4327  24.6869  24.6869  25.1830

          k =-0.1120 0.5599-0.1120 (  1278 PWs)   bands (ev):

    -4.9563   7.0982   9.1584   9.3393  19.0050  24.0048  26.0256  26.0769

          k =-0.2240 0.6719-0.2240 (  1268 PWs)   bands (ev):

    -3.0730   3.8659   8.0442   8.9037  19.9554  25.0850  26.2808  26.7243

          k = 0.6719-0.2240 0.6719 (  1264 PWs)   bands (ev):

    -1.0094   1.2188   6.9701   9.2283  20.5511  25.7051  26.8776  27.9134

          k = 0.5599-0.1120 0.5599 (  1273 PWs)   bands (ev):

    -2.3580   2.9272   6.4138  10.0672  21.3632  24.6148  26.6560  29.0414

          k = 0.4480 0.0000 0.4480 (  1283 PWs)   bands (ev):

    -4.4012   5.9187   6.7849  11.2194  22.3013  23.0364  25.3186  27.9474

          k = 0.0000 0.6719 0.0000 (  1267 PWs)   bands (ev):

    -3.9366   6.6217   8.2382   8.2382  18.0018  21.5902  28.0916  28.0916

          k =-0.1120 0.7839-0.1120 (  1273 PWs)   bands (ev):

    -2.2849   4.5653   6.8310   7.8632  18.7132  21.2505  28.9744  29.1549

          k = 0.7839-0.1120 0.7839 (  1265 PWs)   bands (ev):

    -0.2000   2.5259   4.8865   8.0940  19.3967  23.8381  28.5045  29.4411

          k = 0.6719 0.0000 0.6719 (  1276 PWs)   bands (ev):

    -0.3570   2.7401   4.0180   8.8881  20.1915  26.9314  27.6169  29.2225

          k = 0.0000 0.8959 0.0000 (  1274 PWs)   bands (ev):

    -0.8724   2.7742   7.3359   7.3359  18.1770  19.2686  30.5575  30.5575

          k = 0.8959 0.0000 0.8959 (  1264 PWs)   bands (ev):

     0.9950   1.1035   6.1363   7.4177  18.7732  20.1588  30.3705  30.6763

          k =-0.2240 0.4480 0.0000 (  1277 PWs)   bands (ev):

    -5.7568   8.0043   8.7771  11.3671  20.1701  23.7117  24.6563  26.3205

          k =-0.3360 0.5599-0.1120 (  1271 PWs)   bands (ev):

    -4.0652   4.8371   7.9655  10.2779  21.4567  23.5781  26.0226  26.7864

          k = 0.5599-0.3360 0.7839 (  1260 PWs)   bands (ev):

    -1.8888   1.6826   7.8649   9.4013  21.9682  23.3768  26.5835  28.6260

          k =-0.2240 0.6719-0.0000 (  1272 PWs)   bands (ev):

    -3.4994   5.8219   7.1471   8.4963  19.8026  22.9997  26.4780  28.1552

          k = 0.6719-0.2240 0.8959 (  1268 PWs)   bands (ev):

    -1.4867   3.3684   6.1046   7.7000  20.9927  24.2211  26.3366  29.0565

          k = 0.5599-0.1120 0.7839 (  1267 PWs)   bands (ev):

    -0.2357   1.9723   5.2846   8.0108  21.6184  25.1493  27.8109  28.3062

          k = 0.4480 0.0000 0.6719 (  1266 PWs)   bands (ev):

    -2.2308   4.2017   5.2779   9.0443  22.5072  23.6087  26.9444  28.3957

          k = 0.7839-0.1120 1.0079 (  1274 PWs)   bands (ev):

    -0.4960   2.9190   6.3570   6.6326  19.9543  20.9330  29.0649  30.1921

          k = 0.6719-0.0000 0.8959 (  1266 PWs)   bands (ev):

     1.1644   1.8068   4.5194   6.9366  20.8036  23.7729  28.2037  29.0372

          k = 0.5599-0.1120 1.0079 (  1253 PWs)   bands (ev):

     0.4764   2.7409   4.7734   6.1047  23.7957  23.8140  26.2430  28.1463

     highest occupied, lowest unoccupied level (ev):    13.7226   18.0018

!    total energy              =     -22.89060810 Ry
     Harris-Foulkes estimate   =     -22.89060810 Ry
     estimated scf accuracy    <          5.6E-18 Ry

     The total energy is the sum of the following terms:

     one-electron contribution =       8.27828595 Ry
     hartree contribution      =       1.88506758 Ry
     xc contribution           =      -7.13624082 Ry
     ewald contribution        =     -25.91772080 Ry

     convergence has been achieved in   9 iterations

     Forces acting on atoms (cartesian axes, Ry/au):

     atom    1 type  1   force =    -0.00000000   -0.00000000   -0.00000000
     atom    2 type  1   force =     0.00000000    0.00000000    0.00000000

     Total force =     0.000000     Total SCF correction =     0.000000


     Computing stress (Cartesian axis) and pressure

          total   stress  (Ry/bohr**3)                   (kbar)     P=    0.08
   0.00000051   0.00000000  -0.00000000          0.08      0.00     -0.00
   0.00000000   0.00000051   0.00000000          0.00      0.08      0.00
  -0.00000000   0.00000000   0.00000051         -0.00      0.00      0.08


     bfgs converged in   4 scf cycles and   2 bfgs steps
     (criteria: energy <  1.0E-04 Ry, force <  1.0E-03Ry/Bohr, cell <  5.0E-01kbar)

     End of BFGS Geometry Optimization

     Final enthalpy =     -22.8906081012 Ry
Begin final coordinates
     new unit-cell volume =     73.55151 a.u.^3 (    10.89921 Ang^3 )
     density =      3.65985 g/cm^3

CELL_PARAMETERS (alat=  6.70342551)
  -0.496086126  -0.000000000   0.496086126
  -0.000000000   0.496086126   0.496086126
  -0.496086126   0.496086126   0.000000000

ATOMIC_POSITIONS (crystal)
C        0.000000000  -0.000000000   0.000000000
C        0.250000000   0.250000000   0.250000000
End final coordinates



     A final scf calculation at the relaxed structure.
     The G-vectors are recalculated for the final unit cell
     Results may differ from those at the preceding step.
 
     Parallelization info
     --------------------
     sticks:   dense  smooth     PW     G-vecs:    dense   smooth      PW
     Min          14      14      4                  242      242      43
     Max          15      15      5                  248      248      47
     Sum         595     595    199                 9841     9841    1807
 


     bravais-lattice index     =            2
     lattice parameter (alat)  =       6.7034  a.u.
     unit-cell volume          =      73.5515 (a.u.)^3
     number of atoms/cell      =            2
     number of atomic types    =            1
     number of electrons       =         8.00
     number of Kohn-Sham states=            8
     kinetic-energy cutoff     =     100.0000  Ry
     charge density cutoff     =     400.0000  Ry
     convergence threshold     =      1.0E-17
     mixing beta               =       0.7000
     number of iterations used =            8  local-TF  mixing
     Exchange-correlation      = PZ ( 1  1  0  0 0 0)

     celldm(1)=   6.703426  celldm(2)=   0.000000  celldm(3)=   0.000000
     celldm(4)=   0.000000  celldm(5)=   0.000000  celldm(6)=   0.000000

     crystal axes: (cart. coord. in units of alat)
               a(1) = (  -0.496086  -0.000000   0.496086 )  
               a(2) = (  -0.000000   0.496086   0.496086 )  
               a(3) = (  -0.496086   0.496086   0.000000 )  

     reciprocal axes: (cart. coord. in units 2 pi/alat)
               b(1) = ( -1.007890 -1.007890  1.007890 )  
               b(2) = (  1.007890  1.007890  1.007890 )  
               b(3) = ( -1.007890  1.007890 -1.007890 )  


     PseudoPot. # 1 for  C read from file:
     ../C.pz-mt.fhi.UPF
     MD5 check sum: b7c38bc33a0cf75f44be89b84470f298
     Pseudo is Norm-conserving, Zval =  4.0
     Generated using FHI98PP, converted with fhi2upf.x v.5.0.2
     Using radial grid of  461 points,  2 beta functions with: 
                l(1) =   0
                l(2) =   1

     atomic species   valence    mass     pseudopotential
        C              4.00    12.01100      C( 1.00)

     48 Sym. Ops., with inversion, found (24 have fractional translation)



   Cartesian axes

     site n.     atom                  positions (alat units)
         1           C   tau(   1) = (  -0.0000000  -0.0000000  -0.0000000  )
         2           C   tau(   2) = (  -0.2480431   0.2480431   0.2480431  )

     number of k points=    35
                       cart. coord. in units 2pi/alat
        k(    1) = (   0.0000000   0.0000000   0.0000000), wk =   0.0027435
        k(    2) = (  -0.1119877   0.1119877  -0.1119877), wk =   0.0219479
        k(    3) = (  -0.2239754   0.2239754  -0.2239754), wk =   0.0219479
        k(    4) = (  -0.3359632   0.3359632  -0.3359632), wk =   0.0219479
        k(    5) = (  -0.4479509   0.4479509  -0.4479509), wk =   0.0219479
        k(    6) = (   0.0000000   0.2239754   0.0000000), wk =   0.0164609
        k(    7) = (  -0.1119877   0.3359632  -0.1119877), wk =   0.0658436
        k(    8) = (  -0.2239754   0.4479509  -0.2239754), wk =   0.0658436
        k(    9) = (  -0.3359632   0.5599386  -0.3359632), wk =   0.0658436
        k(   10) = (   0.5599386  -0.3359632   0.5599386), wk =   0.0658436
        k(   11) = (   0.4479509  -0.2239754   0.4479509), wk =   0.0658436
        k(   12) = (   0.3359632  -0.1119877   0.3359632), wk =   0.0658436
        k(   13) = (   0.2239754  -0.0000000   0.2239754), wk =   0.0329218
        k(   14) = (   0.0000000   0.4479509   0.0000000), wk =   0.0164609
        k(   15) = (  -0.1119877   0.5599386  -0.1119877), wk =   0.0658436
        k(   16) = (  -0.2239754   0.6719263  -0.2239754), wk =   0.0658436
        k(   17) = (   0.6719263  -0.2239754   0.6719263), wk =   0.0658436
        k(   18) = (   0.5599386  -0.1119877   0.5599386), wk =   0.0658436
        k(   19) = (   0.4479509   0.0000000   0.4479509), wk =   0.0329218
        k(   20) = (   0.0000000   0.6719263   0.0000000), wk =   0.0164609
        k(   21) = (  -0.1119877   0.7839141  -0.1119877), wk =   0.0658436
        k(   22) = (   0.7839141  -0.1119877   0.7839141), wk =   0.0658436
        k(   23) = (   0.6719263   0.0000000   0.6719263), wk =   0.0329218
        k(   24) = (   0.0000000   0.8959018   0.0000000), wk =   0.0164609
        k(   25) = (   0.8959018   0.0000000   0.8959018), wk =   0.0329218
        k(   26) = (  -0.2239754   0.4479509   0.0000000), wk =   0.0658436
        k(   27) = (  -0.3359632   0.5599386  -0.1119877), wk =   0.1316872
        k(   28) = (   0.5599386  -0.3359632   0.7839141), wk =   0.1316872
        k(   29) = (  -0.2239754   0.6719263  -0.0000000), wk =   0.0658436
        k(   30) = (   0.6719263  -0.2239754   0.8959018), wk =   0.1316872
        k(   31) = (   0.5599386  -0.1119877   0.7839141), wk =   0.1316872
        k(   32) = (   0.4479509   0.0000000   0.6719263), wk =   0.0658436
        k(   33) = (   0.7839141  -0.1119877   1.0078895), wk =   0.0658436
        k(   34) = (   0.6719263  -0.0000000   0.8959018), wk =   0.0658436
        k(   35) = (   0.5599386  -0.1119877   1.0078895), wk =   0.0658436

     Dense  grid:     9841 G-vectors     FFT dimensions: (  30,  30,  30)

     Estimated max dynamical RAM per process >       0.41MB

     Estimated total allocated dynamical RAM >      16.21MB

     Initial potential from superposition of free atoms

     starting charge    7.99993, renormalised to    8.00000
     Starting wfc are   18 randomized atomic wfcs

     Writing output data file c.save

     total cpu time spent up to now is       15.8 secs

     per-process dynamical memory:    23.2 Mb

     Self-consistent Calculation

     iteration #  1     ecut=   100.00 Ry     beta=0.70
     Davidson diagonalization with overlap
     ethr =  1.00E-06,  avg # of iterations =  5.7

     total cpu time spent up to now is       16.6 secs

     total energy              =     -22.89805281 Ry
     Harris-Foulkes estimate   =     -22.95125406 Ry
     estimated scf accuracy    <       0.13698472 Ry

     iteration #  2     ecut=   100.00 Ry     beta=0.70
     Davidson diagonalization with overlap
     ethr =  1.71E-03,  avg # of iterations =  1.3

     total cpu time spent up to now is       16.8 secs

     total energy              =     -22.88723544 Ry
     Harris-Foulkes estimate   =     -22.90229827 Ry
     estimated scf accuracy    <       0.02779001 Ry

     iteration #  3     ecut=   100.00 Ry     beta=0.70
     Davidson diagonalization with overlap
     ethr =  3.47E-04,  avg # of iterations =  2.1

     total cpu time spent up to now is       17.2 secs

     total energy              =     -22.89055864 Ry
     Harris-Foulkes estimate   =     -22.89051126 Ry
     estimated scf accuracy    <       0.00013069 Ry

     iteration #  4     ecut=   100.00 Ry     beta=0.70
     Davidson diagonalization with overlap
     ethr =  1.63E-06,  avg # of iterations =  2.1

     total cpu time spent up to now is       17.6 secs

     total energy              =     -22.89058192 Ry
     Harris-Foulkes estimate   =     -22.89059017 Ry
     estimated scf accuracy    <       0.00001090 Ry

     iteration #  5     ecut=   100.00 Ry     beta=0.70
     Davidson diagonalization with overlap
     ethr =  1.36E-07,  avg # of iterations =  2.1

     total cpu time spent up to now is       17.9 secs

     total energy              =     -22.89058361 Ry
     Harris-Foulkes estimate   =     -22.89058325 Ry
     estimated scf accuracy    <       0.00000032 Ry

     iteration #  6     ecut=   100.00 Ry     beta=0.70
     Davidson diagonalization with overlap
     ethr =  3.94E-09,  avg # of iterations =  2.0

     total cpu time spent up to now is       18.3 secs

     total energy              =     -22.89058464 Ry
     Harris-Foulkes estimate   =     -22.89058365 Ry
     estimated scf accuracy    <       0.00000001 Ry

     iteration #  7     ecut=   100.00 Ry     beta=0.70
     Davidson diagonalization with overlap
     ethr =  1.37E-10,  avg # of iterations =  2.7

     total cpu time spent up to now is       18.7 secs

     total energy              =     -22.89058464 Ry
     Harris-Foulkes estimate   =     -22.89058464 Ry
     estimated scf accuracy    <          2.7E-11 Ry

     iteration #  8     ecut=   100.00 Ry     beta=0.70
     Davidson diagonalization with overlap
     ethr =  3.42E-13,  avg # of iterations =  2.6

     total cpu time spent up to now is       19.1 secs

     total energy              =     -22.89058464 Ry
     Harris-Foulkes estimate   =     -22.89058464 Ry
     estimated scf accuracy    <          5.6E-12 Ry

     iteration #  9     ecut=   100.00 Ry     beta=0.70
     Davidson diagonalization with overlap
     ethr =  1.00E-13,  avg # of iterations =  2.0

     total cpu time spent up to now is       19.4 secs

     total energy              =     -22.89058464 Ry
     Harris-Foulkes estimate   =     -22.89058464 Ry
     estimated scf accuracy    <          1.6E-13 Ry

     iteration # 10     ecut=   100.00 Ry     beta=0.70
     Davidson diagonalization with overlap
     ethr =  1.00E-13,  avg # of iterations =  1.0

     total cpu time spent up to now is       19.7 secs

     total energy              =     -22.89058464 Ry
     Harris-Foulkes estimate   =     -22.89058464 Ry
     estimated scf accuracy    <          4.2E-15 Ry

     iteration # 11     ecut=   100.00 Ry     beta=0.70
     Davidson diagonalization with overlap
     ethr =  1.00E-13,  avg # of iterations =  1.0

     total cpu time spent up to now is       19.9 secs

     total energy              =     -22.89058464 Ry
     Harris-Foulkes estimate   =     -22.89058464 Ry
     estimated scf accuracy    <          1.3E-15 Ry

     iteration # 12     ecut=   100.00 Ry     beta=0.70
     Davidson diagonalization with overlap
     ethr =  1.00E-13,  avg # of iterations =  1.0

     total cpu time spent up to now is       20.1 secs

     End of self-consistent calculation

          k = 0.0000 0.0000 0.0000 (  1243 PWs)   bands (ev):

    -8.0801  13.7226  13.7226  13.7226  19.3955  19.3955  19.3955  28.0351

          k =-0.1120 0.1120-0.1120 (  1255 PWs)   bands (ev):

    -7.7281  11.7034  13.1688  13.1688  20.1224  20.1224  20.5736  28.2272

          k =-0.2240 0.2240-0.2240 (  1254 PWs)   bands (ev):

    -6.6794   8.0110  12.1592  12.1592  21.3947  21.3947  22.0253  28.7372

          k =-0.3360 0.3360-0.3360 (  1236 PWs)   bands (ev):

    -4.9651   4.2114  11.3350  11.3350  22.1361  22.1361  22.8640  29.2721

          k =-0.4480 0.4480-0.4480 (  1242 PWs)   bands (ev):

    -2.7378   0.8731  10.8981  10.8981  22.2976  22.2976  23.2280  29.5050

          k = 0.0000 0.2240 0.0000 (  1251 PWs)   bands (ev):

    -7.6109  12.2238  12.2238  12.7069  19.0757  21.2904  21.2904  27.9403

          k =-0.1120 0.3360-0.1120 (  1251 PWs)   bands (ev):

    -6.7949   9.3190  11.1325  12.0987  19.6236  22.7958  22.8160  27.4342

          k =-0.2240 0.4480-0.2240 (  1245 PWs)   bands (ev):

    -5.3018   5.6369  10.3917  11.0666  20.7675  23.6468  23.7955  27.5326

          k =-0.3360 0.5599-0.3360 (  1238 PWs)   bands (ev):

    -3.2127   2.1483  10.1143  10.1536  21.4185  23.6277  24.2409  28.7050

          k = 0.5599-0.3360 0.5599 (  1233 PWs)   bands (ev):

    -1.8320   0.4068   9.5172  10.4319  21.8776  23.1924  24.3098  29.5699

          k = 0.4480-0.2240 0.4480 (  1242 PWs)   bands (ev):

    -3.9638   3.2677   9.3954  11.1626  22.4053  22.5639  24.0066  29.0407

          k = 0.3360-0.1120 0.3360 (  1250 PWs)   bands (ev):

    -5.8727   6.8909   9.8006  12.1879  21.5424  22.5878  23.1175  28.2685

          k = 0.2240-0.0000 0.2240 (  1261 PWs)   bands (ev):

    -7.1439  10.3094  10.9012  13.1168  20.3386  21.5644  21.8517  28.2138

          k = 0.0000 0.4480 0.0000 (  1259 PWs)   bands (ev):

    -6.2153   9.9610   9.9610  10.1207  18.4327  24.6870  24.6870  25.1831

          k =-0.1120 0.5599-0.1120 (  1250 PWs)   bands (ev):

    -4.9563   7.0982   9.1584   9.3393  19.0051  24.0048  26.0256  26.0769

          k =-0.2240 0.6719-0.2240 (  1247 PWs)   bands (ev):

    -3.0730   3.8659   8.0442   8.9037  19.9555  25.0850  26.2808  26.7243

          k = 0.6719-0.2240 0.6719 (  1235 PWs)   bands (ev):

    -1.0093   1.2188   6.9701   9.2284  20.5511  25.7052  26.8776  27.9135

          k = 0.5599-0.1120 0.5599 (  1242 PWs)   bands (ev):

    -2.3580   2.9272   6.4138  10.0673  21.3632  24.6149  26.6560  29.0415

          k = 0.4480 0.0000 0.4480 (  1245 PWs)   bands (ev):

    -4.4012   5.9187   6.7849  11.2195  22.3013  23.0365  25.3187  27.9474

          k = 0.0000 0.6719 0.0000 (  1258 PWs)   bands (ev):

    -3.9366   6.6217   8.2382   8.2382  18.0018  21.5902  28.0916  28.0916

          k =-0.1120 0.7839-0.1120 (  1240 PWs)   bands (ev):

    -2.2848   4.5654   6.8311   7.8633  18.7133  21.2505  28.9745  29.1550

          k = 0.7839-0.1120 0.7839 (  1236 PWs)   bands (ev):

    -0.2000   2.5259   4.8865   8.0941  19.3967  23.8381  28.5046  29.4412

          k = 0.6719 0.0000 0.6719 (  1234 PWs)   bands (ev):

    -0.3569   2.7401   4.0180   8.8881  20.1915  26.9316  27.6169  29.2226

          k = 0.0000 0.8959 0.0000 (  1234 PWs)   bands (ev):

    -0.8724   2.7742   7.3360   7.3360  18.1770  19.2686  30.5577  30.5577

          k = 0.8959 0.0000 0.8959 (  1240 PWs)   bands (ev):

     0.9950   1.1035   6.1363   7.4177  18.7732  20.1589  30.3705  30.6764

          k =-0.2240 0.4480 0.0000 (  1246 PWs)   bands (ev):

    -5.7567   8.0043   8.7771  11.3671  20.1701  23.7118  24.6564  26.3206

          k =-0.3360 0.5599-0.1120 (  1248 PWs)   bands (ev):

    -4.0652   4.8371   7.9655  10.2779  21.4567  23.5782  26.0226  26.7864

          k = 0.5599-0.3360 0.7839 (  1235 PWs)   bands (ev):

    -1.8888   1.6826   7.8649   9.4014  21.9682  23.3768  26.5836  28.6260

          k =-0.2240 0.6719-0.0000 (  1245 PWs)   bands (ev):

    -3.4994   5.8219   7.1471   8.4963  19.8026  22.9997  26.4780  28.1553

          k = 0.6719-0.2240 0.8959 (  1236 PWs)   bands (ev):

    -1.4866   3.3684   6.1046   7.7000  20.9927  24.2212  26.3367  29.0565

          k = 0.5599-0.1120 0.7839 (  1243 PWs)   bands (ev):

    -0.2357   1.9724   5.2846   8.0108  21.6184  25.1494  27.8109  28.3062

          k = 0.4480 0.0000 0.6719 (  1239 PWs)   bands (ev):

    -2.2308   4.2017   5.2779   9.0443  22.5073  23.6087  26.9444  28.3958

          k = 0.7839-0.1120 1.0079 (  1238 PWs)   bands (ev):

    -0.4960   2.9191   6.3571   6.6327  19.9543  20.9331  29.0650  30.1923

          k = 0.6719-0.0000 0.8959 (  1243 PWs)   bands (ev):

     1.1644   1.8068   4.5195   6.9366  20.8036  23.7729  28.2037  29.0372

          k = 0.5599-0.1120 1.0079 (  1233 PWs)   bands (ev):

     0.4765   2.7409   4.7734   6.1047  23.7958  23.8140  26.2430  28.1463

     highest occupied, lowest unoccupied level (ev):    13.7226   18.0018

!    total energy              =     -22.89058464 Ry
     Harris-Foulkes estimate   =     -22.89058464 Ry
     estimated scf accuracy    <          7.8E-18 Ry

     The total energy is the sum of the following terms:

     one-electron contribution =       8.27831389 Ry
     hartree contribution      =       1.88505591 Ry
     xc contribution           =      -7.13623364 Ry
     ewald contribution        =     -25.91772080 Ry

     convergence has been achieved in  12 iterations

     Forces acting on atoms (cartesian axes, Ry/au):

     atom    1 type  1   force =    -0.00000000   -0.00000000    0.00000000
     atom    2 type  1   force =     0.00000000    0.00000000   -0.00000000

     Total force =     0.000000     Total SCF correction =     0.000000


     Computing stress (Cartesian axis) and pressure

          total   stress  (Ry/bohr**3)                   (kbar)     P=   -0.14
  -0.00000094  -0.00000000   0.00000000         -0.14     -0.00      0.00
  -0.00000000  -0.00000094  -0.00000000         -0.00     -0.14     -0.00
   0.00000000  -0.00000000  -0.00000094          0.00     -0.00     -0.14


     Writing output data file c.save
 
     init_run     :      0.50s CPU      0.59s WALL (       2 calls)
     electrons    :     18.60s CPU     19.05s WALL (       5 calls)
     update_pot   :      0.02s CPU      0.03s WALL (       3 calls)
     forces       :      0.03s CPU      0.04s WALL (       5 calls)
     stress       :      0.04s CPU      0.05s WALL (       5 calls)

     Called by init_run:
     wfcinit      :      0.47s CPU      0.51s WALL (       2 calls)
     potinit      :      0.01s CPU      0.02s WALL (       2 calls)

     Called by electrons:
     c_bands      :     17.94s CPU     18.28s WALL (      55 calls)
     sum_band     :      0.54s CPU      0.57s WALL (      55 calls)
     v_of_rho     :      0.01s CPU      0.03s WALL (      59 calls)
     mix_rho      :      0.07s CPU      0.08s WALL (      55 calls)

     Called by c_bands:
     init_us_2    :      0.04s CPU      0.04s WALL (    4270 calls)
     cegterg      :     17.79s CPU     18.12s WALL (    1925 calls)

     Called by sum_band:

     Called by *egterg:
     h_psi        :      3.16s CPU      3.27s WALL (    5864 calls)
     g_psi        :      0.01s CPU      0.01s WALL (    3869 calls)
     cdiaghg      :      9.91s CPU     10.04s WALL (    5654 calls)

     Called by h_psi:
     h_psi:pot    :      3.15s CPU      3.25s WALL (    5864 calls)
     h_psi:calbec :      0.19s CPU      0.20s WALL (    5864 calls)
     vloc_psi     :      2.90s CPU      2.99s WALL (    5864 calls)
     add_vuspsi   :      0.04s CPU      0.04s WALL (    5864 calls)

     General routines
     calbec       :      0.20s CPU      0.22s WALL (    6739 calls)
     fft          :      0.02s CPU      0.03s WALL (     261 calls)
     ffts         :      0.03s CPU      0.03s WALL (     599 calls)
     fftw         :      3.17s CPU      3.28s WALL (   96858 calls)
 
     Parallel routines
     fft_scatter  :      2.55s CPU      2.65s WALL (   97718 calls)
 
     PWSCF        :    19.61s CPU        20.47s WALL

 
   This run was terminated on:  12: 5:58   8Dec2020            

=------------------------------------------------------------------------------=
   JOB DONE.
=------------------------------------------------------------------------------=
