
     Program PWSCF v.6.1 (svn rev. 13369) starts on 17Dec2020 at 12:22: 0 

     This program is part of the open-source Quantum ESPRESSO suite
     for quantum simulation of materials; please cite
         "P. Giannozzi et al., J. Phys.:Condens. Matter 21 395502 (2009);
          URL http://www.quantum-espresso.org", 
     in publications or presentations arising from this work. More details at
     http://www.quantum-espresso.org/quote

     Parallel version (MPI & OpenMP), running on      40 processor cores
     Number of MPI processes:                40
     Threads/MPI process:                     1
     R & G space division:  proc/nbgrp/npool/nimage =      40
     Waiting for input...
     Reading input from standard input

     Current dimensions of program PWSCF are:
     Max number of different atomic species (ntypx) = 10
     Max number of k-points (npk) =  40000
     Max angular momentum in pseudopotentials (lmaxx) =  3

     IMPORTANT: XC functional enforced from input :
     Exchange-correlation      = PZ ( 1  1  0  0 0 0)
     Any further DFT definition will be discarded
     Please, verify this is what you really want

               file C.pz-mt.fhi.UPF: wavefunction(s)  3d renormalized

     Subspace diagonalization in iterative solution of the eigenvalue problem:
     one sub-group per band group will be used
     scalapack distributed-memory algorithm (size of sub-group:  4*  4 procs)

 
     Parallelization info
     --------------------
     sticks:   dense  smooth     PW     G-vecs:    dense   smooth      PW
     Min          15      15      4                  251      251      43
     Max          16      16      5                  253      253      47
     Sum         613     613    199                10081    10081    1807
 


     bravais-lattice index     =            2
     lattice parameter (alat)  =       6.7034  a.u.
     unit-cell volume          =      75.3061 (a.u.)^3
     number of atoms/cell      =            2
     number of atomic types    =            1
     number of electrons       =         8.00
     number of Kohn-Sham states=            4
     kinetic-energy cutoff     =     100.0000  Ry
     charge density cutoff     =     400.0000  Ry
     convergence threshold     =      1.0E-20
     mixing beta               =       0.7000
     number of iterations used =            8  plain     mixing
     Exchange-correlation      = PZ ( 1  1  0  0 0 0)

     celldm(1)=   6.703426  celldm(2)=   0.000000  celldm(3)=   0.000000
     celldm(4)=   0.000000  celldm(5)=   0.000000  celldm(6)=   0.000000

     crystal axes: (cart. coord. in units of alat)
               a(1) = (  -0.500000   0.000000   0.500000 )  
               a(2) = (   0.000000   0.500000   0.500000 )  
               a(3) = (  -0.500000   0.500000   0.000000 )  

     reciprocal axes: (cart. coord. in units 2 pi/alat)
               b(1) = ( -1.000000 -1.000000  1.000000 )  
               b(2) = (  1.000000  1.000000  1.000000 )  
               b(3) = ( -1.000000  1.000000 -1.000000 )  


     PseudoPot. # 1 for  C read from file:
     ../C.pz-mt.fhi.UPF
     MD5 check sum: b7c38bc33a0cf75f44be89b84470f298
     Pseudo is Norm-conserving, Zval =  4.0
     Generated using FHI98PP, converted with fhi2upf.x v.5.0.2
     Using radial grid of  461 points,  2 beta functions with: 
                l(1) =   0
                l(2) =   1

     atomic species   valence    mass     pseudopotential
        C              4.00    12.01100      C( 1.00)

     48 Sym. Ops., with inversion, found (24 have fractional translation)



   Cartesian axes

     site n.     atom                  positions (alat units)
         1           C   tau(   1) = (   0.0000000   0.0000000   0.0000000  )
         2           C   tau(   2) = (  -0.2500000   0.2500000   0.2500000  )

     number of k points=    72
                       cart. coord. in units 2pi/alat
        k(    1) = (   0.0000000   0.0000000   0.0000000), wk =   0.0011574
        k(    2) = (  -0.0833333   0.0833333  -0.0833333), wk =   0.0092593
        k(    3) = (  -0.1666667   0.1666667  -0.1666667), wk =   0.0092593
        k(    4) = (  -0.2500000   0.2500000  -0.2500000), wk =   0.0092593
        k(    5) = (  -0.3333333   0.3333333  -0.3333333), wk =   0.0092593
        k(    6) = (  -0.4166667   0.4166667  -0.4166667), wk =   0.0092593
        k(    7) = (   0.5000000  -0.5000000   0.5000000), wk =   0.0046296
        k(    8) = (   0.0000000   0.1666667   0.0000000), wk =   0.0069444
        k(    9) = (  -0.0833333   0.2500000  -0.0833333), wk =   0.0277778
        k(   10) = (  -0.1666667   0.3333333  -0.1666667), wk =   0.0277778
        k(   11) = (  -0.2500000   0.4166667  -0.2500000), wk =   0.0277778
        k(   12) = (  -0.3333333   0.5000000  -0.3333333), wk =   0.0277778
        k(   13) = (   0.5833333  -0.4166667   0.5833333), wk =   0.0277778
        k(   14) = (   0.5000000  -0.3333333   0.5000000), wk =   0.0277778
        k(   15) = (   0.4166667  -0.2500000   0.4166667), wk =   0.0277778
        k(   16) = (   0.3333333  -0.1666667   0.3333333), wk =   0.0277778
        k(   17) = (   0.2500000  -0.0833333   0.2500000), wk =   0.0277778
        k(   18) = (   0.1666667  -0.0000000   0.1666667), wk =   0.0138889
        k(   19) = (   0.0000000   0.3333333   0.0000000), wk =   0.0069444
        k(   20) = (  -0.0833333   0.4166667  -0.0833333), wk =   0.0277778
        k(   21) = (  -0.1666667   0.5000000  -0.1666667), wk =   0.0277778
        k(   22) = (  -0.2500000   0.5833333  -0.2500000), wk =   0.0277778
        k(   23) = (   0.6666667  -0.3333333   0.6666667), wk =   0.0277778
        k(   24) = (   0.5833333  -0.2500000   0.5833333), wk =   0.0277778
        k(   25) = (   0.5000000  -0.1666667   0.5000000), wk =   0.0277778
        k(   26) = (   0.4166667  -0.0833333   0.4166667), wk =   0.0277778
        k(   27) = (   0.3333333   0.0000000   0.3333333), wk =   0.0138889
        k(   28) = (   0.0000000   0.5000000   0.0000000), wk =   0.0069444
        k(   29) = (  -0.0833333   0.5833333  -0.0833333), wk =   0.0277778
        k(   30) = (  -0.1666667   0.6666667  -0.1666667), wk =   0.0277778
        k(   31) = (   0.7500000  -0.2500000   0.7500000), wk =   0.0277778
        k(   32) = (   0.6666667  -0.1666667   0.6666667), wk =   0.0277778
        k(   33) = (   0.5833333  -0.0833333   0.5833333), wk =   0.0277778
        k(   34) = (   0.5000000   0.0000000   0.5000000), wk =   0.0138889
        k(   35) = (   0.0000000   0.6666667   0.0000000), wk =   0.0069444
        k(   36) = (  -0.0833333   0.7500000  -0.0833333), wk =   0.0277778
        k(   37) = (   0.8333333  -0.1666667   0.8333333), wk =   0.0277778
        k(   38) = (   0.7500000  -0.0833333   0.7500000), wk =   0.0277778
        k(   39) = (   0.6666667  -0.0000000   0.6666667), wk =   0.0138889
        k(   40) = (   0.0000000   0.8333333   0.0000000), wk =   0.0069444
        k(   41) = (   0.9166667  -0.0833333   0.9166667), wk =   0.0277778
        k(   42) = (   0.8333333   0.0000000   0.8333333), wk =   0.0138889
        k(   43) = (   0.0000000  -1.0000000   0.0000000), wk =   0.0034722
        k(   44) = (  -0.1666667   0.3333333   0.0000000), wk =   0.0277778
        k(   45) = (  -0.2500000   0.4166667  -0.0833333), wk =   0.0555556
        k(   46) = (  -0.3333333   0.5000000  -0.1666667), wk =   0.0555556
        k(   47) = (   0.5833333  -0.4166667   0.7500000), wk =   0.0555556
        k(   48) = (   0.5000000  -0.3333333   0.6666667), wk =   0.0277778
        k(   49) = (  -0.1666667   0.5000000   0.0000000), wk =   0.0277778
        k(   50) = (  -0.2500000   0.5833333  -0.0833333), wk =   0.0555556
        k(   51) = (   0.6666667  -0.3333333   0.8333333), wk =   0.0555556
        k(   52) = (   0.5833333  -0.2500000   0.7500000), wk =   0.0555556
        k(   53) = (   0.5000000  -0.1666667   0.6666667), wk =   0.0555556
        k(   54) = (   0.4166667  -0.0833333   0.5833333), wk =   0.0555556
        k(   55) = (   0.3333333   0.0000000   0.5000000), wk =   0.0277778
        k(   56) = (  -0.1666667   0.6666667  -0.0000000), wk =   0.0277778
        k(   57) = (   0.7500000  -0.2500000   0.9166667), wk =   0.0555556
        k(   58) = (   0.6666667  -0.1666667   0.8333333), wk =   0.0555556
        k(   59) = (   0.5833333  -0.0833333   0.7500000), wk =   0.0555556
        k(   60) = (   0.5000000   0.0000000   0.6666667), wk =   0.0277778
        k(   61) = (   0.8333333  -0.1666667   1.0000000), wk =   0.0277778
        k(   62) = (   0.7500000  -0.0833333   0.9166667), wk =   0.0555556
        k(   63) = (   0.6666667   0.0000000   0.8333333), wk =   0.0277778
        k(   64) = (  -0.1666667  -1.0000000  -0.0000000), wk =   0.0138889
        k(   65) = (   0.6666667  -0.3333333   1.0000000), wk =   0.0277778
        k(   66) = (   0.5833333  -0.2500000   0.9166667), wk =   0.0555556
        k(   67) = (   0.5000000  -0.1666667   0.8333333), wk =   0.0277778
        k(   68) = (   0.6666667  -0.1666667   1.0000000), wk =   0.0277778
        k(   69) = (   0.5833333  -0.0833333   0.9166667), wk =   0.0555556
        k(   70) = (   0.5000000   0.0000000   0.8333333), wk =   0.0277778
        k(   71) = (  -0.3333333  -1.0000000   0.0000000), wk =   0.0138889
        k(   72) = (  -0.5000000  -1.0000000   0.0000000), wk =   0.0069444

     Dense  grid:    10081 G-vectors     FFT dimensions: (  32,  32,  32)

     Estimated max dynamical RAM per process >       0.35MB

     Estimated total allocated dynamical RAM >      13.84MB

     Initial potential from superposition of free atoms

     starting charge    7.99993, renormalised to    8.00000
     Starting wfc are   18 randomized atomic wfcs

     total cpu time spent up to now is        1.2 secs

     per-process dynamical memory:    13.0 Mb

     Self-consistent Calculation

     iteration #  1     ecut=   100.00 Ry     beta=0.70
     Davidson diagonalization with overlap
     ethr =  1.00E-02,  avg # of iterations =  2.0

     total cpu time spent up to now is        1.6 secs

     total energy              =     -22.87752500 Ry
     Harris-Foulkes estimate   =     -22.94614628 Ry
     estimated scf accuracy    <       0.13078023 Ry

     iteration #  2     ecut=   100.00 Ry     beta=0.70
     Davidson diagonalization with overlap
     ethr =  1.63E-03,  avg # of iterations =  2.0

     total cpu time spent up to now is        2.0 secs

     total energy              =     -22.88959926 Ry
     Harris-Foulkes estimate   =     -22.89009587 Ry
     estimated scf accuracy    <       0.00187940 Ry

     iteration #  3     ecut=   100.00 Ry     beta=0.70
     Davidson diagonalization with overlap
     ethr =  2.35E-05,  avg # of iterations =  2.1

     total cpu time spent up to now is        2.5 secs

     total energy              =     -22.88997464 Ry
     Harris-Foulkes estimate   =     -22.88998688 Ry
     estimated scf accuracy    <       0.00007196 Ry

     iteration #  4     ecut=   100.00 Ry     beta=0.70
     Davidson diagonalization with overlap
     ethr =  8.99E-07,  avg # of iterations =  2.4

     total cpu time spent up to now is        2.9 secs

     total energy              =     -22.88999225 Ry
     Harris-Foulkes estimate   =     -22.88999387 Ry
     estimated scf accuracy    <       0.00000282 Ry

     iteration #  5     ecut=   100.00 Ry     beta=0.70
     Davidson diagonalization with overlap
     ethr =  3.52E-08,  avg # of iterations =  2.5

     total cpu time spent up to now is        3.4 secs

     total energy              =     -22.88999330 Ry
     Harris-Foulkes estimate   =     -22.88999331 Ry
     estimated scf accuracy    <       0.00000003 Ry

     iteration #  6     ecut=   100.00 Ry     beta=0.70
     Davidson diagonalization with overlap
     ethr =  3.38E-10,  avg # of iterations =  3.0

     total cpu time spent up to now is        4.0 secs

     total energy              =     -22.88999332 Ry
     Harris-Foulkes estimate   =     -22.88999332 Ry
     estimated scf accuracy    <          8.7E-10 Ry

     iteration #  7     ecut=   100.00 Ry     beta=0.70
     Davidson diagonalization with overlap
     ethr =  1.08E-11,  avg # of iterations =  2.3

     total cpu time spent up to now is        4.5 secs

     total energy              =     -22.88999332 Ry
     Harris-Foulkes estimate   =     -22.88999332 Ry
     estimated scf accuracy    <          8.2E-13 Ry

     iteration #  8     ecut=   100.00 Ry     beta=0.70
     Davidson diagonalization with overlap
     ethr =  1.00E-13,  avg # of iterations =  3.0

     total cpu time spent up to now is        5.0 secs

     total energy              =     -22.88999332 Ry
     Harris-Foulkes estimate   =     -22.88999332 Ry
     estimated scf accuracy    <          5.4E-13 Ry

     iteration #  9     ecut=   100.00 Ry     beta=0.70
     Davidson diagonalization with overlap
     ethr =  1.00E-13,  avg # of iterations =  1.0

     total cpu time spent up to now is        5.3 secs

     total energy              =     -22.88999332 Ry
     Harris-Foulkes estimate   =     -22.88999332 Ry
     estimated scf accuracy    <          4.4E-15 Ry

     iteration # 10     ecut=   100.00 Ry     beta=0.70
     Davidson diagonalization with overlap
     ethr =  1.00E-13,  avg # of iterations =  1.0

     total cpu time spent up to now is        5.6 secs

     total energy              =     -22.88999332 Ry
     Harris-Foulkes estimate   =     -22.88999332 Ry
     estimated scf accuracy    <          4.0E-17 Ry

     iteration # 11     ecut=   100.00 Ry     beta=0.70
     Davidson diagonalization with overlap
     ethr =  1.00E-13,  avg # of iterations =  1.0

     total cpu time spent up to now is        5.8 secs

     total energy              =     -22.88999332 Ry
     Harris-Foulkes estimate   =     -22.88999332 Ry
     estimated scf accuracy    <          1.8E-16 Ry

     iteration # 12     ecut=   100.00 Ry     beta=0.70
     Davidson diagonalization with overlap
     ethr =  1.00E-13,  avg # of iterations =  1.0

     total cpu time spent up to now is        6.1 secs

     total energy              =     -22.88999332 Ry
     Harris-Foulkes estimate   =     -22.88999332 Ry
     estimated scf accuracy    <          2.0E-17 Ry

     iteration # 13     ecut=   100.00 Ry     beta=0.70
     Davidson diagonalization with overlap
     ethr =  1.00E-13,  avg # of iterations =  1.0

     total cpu time spent up to now is        6.4 secs

     total energy              =     -22.88999332 Ry
     Harris-Foulkes estimate   =     -22.88999332 Ry
     estimated scf accuracy    <          2.1E-18 Ry

     iteration # 14     ecut=   100.00 Ry     beta=0.70
     Davidson diagonalization with overlap
     ethr =  1.00E-13,  avg # of iterations =  1.0

     total cpu time spent up to now is        6.6 secs

     total energy              =     -22.88999332 Ry
     Harris-Foulkes estimate   =     -22.88999332 Ry
     estimated scf accuracy    <          1.4E-18 Ry

     iteration # 15     ecut=   100.00 Ry     beta=0.70
     Davidson diagonalization with overlap
     ethr =  1.00E-13,  avg # of iterations =  1.0

     total cpu time spent up to now is        6.9 secs

     total energy              =     -22.88999332 Ry
     Harris-Foulkes estimate   =     -22.88999332 Ry
     estimated scf accuracy    <          1.7E-19 Ry

     iteration # 16     ecut=   100.00 Ry     beta=0.70
     Davidson diagonalization with overlap
     ethr =  1.00E-13,  avg # of iterations =  1.0

     total cpu time spent up to now is        7.2 secs

     End of self-consistent calculation

          k = 0.0000 0.0000 0.0000 (  1243 PWs)   bands (ev):

    -8.1912  13.2945  13.2945  13.2945

          k =-0.0833 0.0833-0.0833 (  1267 PWs)   bands (ev):

    -7.9962  12.0773  12.9692  12.9692

          k =-0.1667 0.1667-0.1667 (  1278 PWs)   bands (ev):

    -7.4133   9.5592  12.2632  12.2632

          k =-0.2500 0.2500-0.2500 (  1287 PWs)   bands (ev):

    -6.4508   6.7279  11.5357  11.5357

          k =-0.3333 0.3333-0.3333 (  1272 PWs)   bands (ev):

    -5.1280   3.9401  10.9588  10.9588

          k =-0.4167 0.4167-0.4167 (  1263 PWs)   bands (ev):

    -3.5101   1.4015  10.5978  10.5978

          k = 0.5000-0.5000 0.5000 (  1260 PWs)   bands (ev):

    -2.2436  -0.1782  10.4756  10.4756

          k = 0.0000 0.1667 0.0000 (  1271 PWs)   bands (ev):

    -7.9312  12.3741  12.3741  12.7088

          k =-0.0833 0.2500-0.0833 (  1287 PWs)   bands (ev):

    -7.4778  10.4170  11.5646  12.3678

          k =-0.1667 0.3333-0.1667 (  1278 PWs)   bands (ev):

    -6.6419   7.7357  10.8389  11.6998

          k =-0.2500 0.4167-0.2500 (  1279 PWs)   bands (ev):

    -5.4384   4.9606  10.3304  10.9471

          k =-0.3333 0.5000-0.3333 (  1274 PWs)   bands (ev):

    -3.9085   2.3431  10.0884  10.2994

          k = 0.5833-0.4167 0.5833 (  1262 PWs)   bands (ev):

    -2.3123   0.2373   9.8447  10.1225

          k = 0.5000-0.3333 0.5000 (  1269 PWs)   bands (ev):

    -2.7949   0.8241   9.6300  10.4195

          k = 0.4167-0.2500 0.4167 (  1275 PWs)   bands (ev):

    -4.4498   3.1904   9.6817  10.9474

          k = 0.3333-0.1667 0.3333 (  1285 PWs)   bands (ev):

    -5.8791   5.8863  10.0096  11.6480

          k = 0.2500-0.0833 0.2500 (  1289 PWs)   bands (ev):

    -6.9625   8.6637  10.6034  12.4048

          k = 0.1667-0.0000 0.1667 (  1281 PWs)   bands (ev):

    -7.6719  11.0778  11.5371  12.9680

          k = 0.0000 0.3333 0.0000 (  1303 PWs)   bands (ev):

    -7.1549  10.6970  10.6970  11.1407

          k =-0.0833 0.4167-0.0833 (  1289 PWs)   bands (ev):

    -6.4490   8.6658   9.9395  10.6671

          k =-0.1667 0.5000-0.1667 (  1284 PWs)   bands (ev):

    -5.3720   6.1093   9.4244   9.9023

          k =-0.2500 0.5833-0.2500 (  1272 PWs)   bands (ev):

    -3.9537   3.5437   9.0501   9.2052

          k = 0.6667-0.3333 0.6667 (  1258 PWs)   bands (ev):

    -2.3200   1.2574   8.3243   9.2946

          k = 0.5833-0.2500 0.5833 (  1273 PWs)   bands (ev):

    -1.8573   0.7088   7.8300   9.6776

          k = 0.5000-0.1667 0.5000 (  1264 PWs)   bands (ev):

    -3.4251   2.7687   7.6237  10.3113

          k = 0.4167-0.0833 0.4167 (  1277 PWs)   bands (ev):

    -4.9382   5.2967   7.7461  11.1110

          k = 0.3333 0.0000 0.3333 (  1279 PWs)   bands (ev):

    -6.1320   7.6589   8.4540  11.9108

          k = 0.0000 0.5000 0.0000 (  1283 PWs)   bands (ev):

    -5.8745   8.9091   9.1329   9.1329

          k =-0.0833 0.5833-0.0833 (  1276 PWs)   bands (ev):

    -4.9283   6.9554   8.5563   8.5672

          k =-0.1667 0.6667-0.1667 (  1273 PWs)   bands (ev):

    -3.6339   4.7350   7.5504   8.3072

          k = 0.7500-0.2500 0.7500 (  1271 PWs)   bands (ev):

    -2.0667   2.5419   6.5553   8.3734

          k = 0.6667-0.1667 0.6667 (  1270 PWs)   bands (ev):

    -0.9002   1.1832   5.7985   8.7561

          k = 0.5833-0.0833 0.5833 (  1274 PWs)   bands (ev):

    -2.1012   2.6727   5.3797   9.4144

          k = 0.5000 0.0000 0.5000 (  1278 PWs)   bands (ev):

    -3.6534   4.6797   5.6318  10.2591

          k = 0.0000 0.6667 0.0000 (  1267 PWs)   bands (ev):

    -4.1148   6.2603   7.9331   7.9331

          k =-0.0833 0.7500-0.0833 (  1275 PWs)   bands (ev):

    -2.9508   4.7520   7.0187   7.6020

          k = 0.8333-0.1667 0.8333 (  1270 PWs)   bands (ev):

    -1.4891   3.2114   5.5592   7.6040

          k = 0.7500-0.0833 0.7500 (  1269 PWs)   bands (ev):

    -0.0444   1.8811   4.2778   7.9369

          k = 0.6667-0.0000 0.6667 (  1276 PWs)   bands (ev):

    -0.6170   2.4566   3.8024   8.5672

          k = 0.0000 0.8333 0.0000 (  1266 PWs)   bands (ev):

    -1.9194   3.4249   7.1882   7.1882

          k = 0.9167-0.0833 0.9167 (  1267 PWs)   bands (ev):

    -0.5799   2.0682   6.3744   7.1071

          k = 0.8333 0.0000 0.8333 (  1264 PWs)   bands (ev):

     0.7739   1.0940   4.9269   7.3648

          k = 0.0000-1.0000 0.0000 (  1266 PWs)   bands (ev):

     0.6356   0.6356   6.9364   6.9364

          k =-0.1667 0.3333 0.0000 (  1282 PWs)   bands (ev):

    -6.8979   9.3344   9.9456  11.9630

          k =-0.2500 0.4167-0.0833 (  1283 PWs)   bands (ev):

    -5.9412   6.9487   9.1056  11.2929

          k =-0.3333 0.5000-0.1667 (  1280 PWs)   bands (ev):

    -4.6286   4.2997   8.7203  10.5069

          k = 0.5833-0.4167 0.7500 (  1267 PWs)   bands (ev):

    -3.0289   1.8356   8.5977   9.8618

          k = 0.5000-0.3333 0.6667 (  1260 PWs)   bands (ev):

    -1.7907   0.3007   8.6052   9.5888

          k =-0.1667 0.5000 0.0000 (  1281 PWs)   bands (ev):

    -5.6226   7.6209   8.4352  10.0688

          k =-0.2500 0.5833-0.0833 (  1279 PWs)   bands (ev):

    -4.4359   5.4669   7.7021   9.3140

          k = 0.6667-0.3333 0.8333 (  1262 PWs)   bands (ev):

    -2.9351   3.0941   7.3302   8.6745

          k = 0.5833-0.2500 0.7500 (  1264 PWs)   bands (ev):

    -1.3953   1.1320   6.9310   8.5710

          k = 0.5000-0.1667 0.6667 (  1270 PWs)   bands (ev):

    -1.8659   1.7083   6.5846   8.9889

          k = 0.4167-0.0833 0.5833 (  1273 PWs)   bands (ev):

    -3.4722   3.9297   6.4941   9.7237

          k = 0.3333 0.0000 0.5000 (  1284 PWs)   bands (ev):

    -4.8738   6.0999   7.0135  10.5849

          k =-0.1667 0.6667-0.0000 (  1274 PWs)   bands (ev):

    -3.8728   5.8009   7.2791   8.0757

          k = 0.7500-0.2500 0.9167 (  1269 PWs)   bands (ev):

    -2.4912   4.1015   6.2773   7.5327

          k = 0.6667-0.1667 0.8333 (  1263 PWs)   bands (ev):

    -0.9243   2.2806   5.3079   7.5644

          k = 0.5833-0.0833 0.7500 (  1268 PWs)   bands (ev):

    -0.5452   1.9283   4.6204   8.0339

          k = 0.5000 0.0000 0.6667 (  1266 PWs)   bands (ev):

    -2.0240   3.4986   4.6263   8.8054

          k = 0.8333-0.1667 1.0000 (  1274 PWs)   bands (ev):

    -1.6987   3.4408   6.5833   6.8401

          k = 0.7500-0.0833 0.9167 (  1272 PWs)   bands (ev):

    -0.2042   2.2062   5.1765   6.8163

          k = 0.6667 0.0000 0.8333 (  1268 PWs)   bands (ev):

     0.6101   1.7110   3.9482   7.2682

          k =-0.1667-1.0000-0.0000 (  1276 PWs)   bands (ev):

     0.8042   0.8042   6.4097   6.4097

          k = 0.6667-0.3333 1.0000 (  1265 PWs)   bands (ev):

    -3.1593   4.7157   5.9258   8.4516

          k = 0.5833-0.2500 0.9167 (  1266 PWs)   bands (ev):

    -1.6215   2.9193   5.4805   7.6400

          k = 0.5000-0.1667 0.8333 (  1270 PWs)   bands (ev):

    -0.4616   1.5703   5.4736   7.2954

          k = 0.6667-0.1667 1.0000 (  1263 PWs)   bands (ev):

    -1.0658   3.2450   5.3318   6.4124

          k = 0.5833-0.0833 0.9167 (  1263 PWs)   bands (ev):

     0.3571   2.1135   4.5266   6.1197

          k = 0.5000 0.0000 0.8333 (  1258 PWs)   bands (ev):

    -0.1537   2.5461   4.2271   6.6706

          k =-0.3333-1.0000 0.0000 (  1268 PWs)   bands (ev):

     1.2195   1.2195   5.3852   5.3852

          k =-0.5000-1.0000 0.0000 (  1256 PWs)   bands (ev):

     1.4948   1.4948   4.8441   4.8441

     highest occupied level (ev):    13.2945

!    total energy              =     -22.88999332 Ry
     Harris-Foulkes estimate   =     -22.88999332 Ry
     estimated scf accuracy    <          6.2E-21 Ry

     The total energy is the sum of the following terms:

     one-electron contribution =       8.01362031 Ry
     hartree contribution      =       1.90794620 Ry
     xc contribution           =      -7.09671641 Ry
     ewald contribution        =     -25.71484342 Ry

     convergence has been achieved in  16 iterations

     Writing output data file c.save
 
     init_run     :      0.35s CPU      0.81s WALL (       1 calls)
     electrons    :      5.87s CPU      6.07s WALL (       1 calls)

     Called by init_run:
     wfcinit      :      0.28s CPU      0.36s WALL (       1 calls)
     potinit      :      0.02s CPU      0.06s WALL (       1 calls)

     Called by electrons:
     c_bands      :      5.72s CPU      5.84s WALL (      16 calls)
     sum_band     :      0.12s CPU      0.15s WALL (      16 calls)
     v_of_rho     :      0.01s CPU      0.03s WALL (      17 calls)
     mix_rho      :      0.01s CPU      0.02s WALL (      16 calls)

     Called by c_bands:
     init_us_2    :      0.02s CPU      0.02s WALL (    2376 calls)
     cegterg      :      5.65s CPU      5.75s WALL (    1152 calls)

     Called by sum_band:

     Called by *egterg:
     h_psi        :      0.83s CPU      0.87s WALL (    3187 calls)
     g_psi        :      0.00s CPU      0.00s WALL (    1963 calls)
     cdiaghg      :      2.96s CPU      3.01s WALL (    3115 calls)

     Called by h_psi:
     h_psi:pot    :      0.82s CPU      0.87s WALL (    3187 calls)
     h_psi:calbec :      0.06s CPU      0.07s WALL (    3187 calls)
     vloc_psi     :      0.74s CPU      0.76s WALL (    3187 calls)
     add_vuspsi   :      0.02s CPU      0.03s WALL (    3187 calls)

     General routines
     calbec       :      0.05s CPU      0.06s WALL (    3187 calls)
     fft          :      0.01s CPU      0.23s WALL (      67 calls)
     fftw         :      0.80s CPU      0.82s WALL (   29848 calls)
 
     Parallel routines
     fft_scatter  :      0.65s CPU      0.67s WALL (   29915 calls)
 
     PWSCF        :     6.66s CPU        11.29s WALL

 
   This run was terminated on:  12:22:11  17Dec2020            

=------------------------------------------------------------------------------=
   JOB DONE.
=------------------------------------------------------------------------------=
