
     Program PWSCF v.6.1 (svn rev. 13369) starts on 26Jan2021 at  9: 0:25 

     This program is part of the open-source Quantum ESPRESSO suite
     for quantum simulation of materials; please cite
         "P. Giannozzi et al., J. Phys.:Condens. Matter 21 395502 (2009);
          URL http://www.quantum-espresso.org", 
     in publications or presentations arising from this work. More details at
     http://www.quantum-espresso.org/quote

     Parallel version (MPI & OpenMP), running on      80 processor cores
     Number of MPI processes:                80
     Threads/MPI process:                     1
     R & G space division:  proc/nbgrp/npool/nimage =      80
     Waiting for input...
     Reading input from standard input

     Current dimensions of program PWSCF are:
     Max number of different atomic species (ntypx) = 10
     Max number of k-points (npk) =  40000
     Max angular momentum in pseudopotentials (lmaxx) =  3

     IMPORTANT: XC functional enforced from input :
     Exchange-correlation      = PBE ( 1  4  3  4 0 0)
     Any further DFT definition will be discarded
     Please, verify this is what you really want


     Subspace diagonalization in iterative solution of the eigenvalue problem:
     one sub-group per band group will be used
     scalapack distributed-memory algorithm (size of sub-group:  6*  6 procs)

 
     Parallelization info
     --------------------
     sticks:   dense  smooth     PW     G-vecs:    dense   smooth      PW
     Min          34      34      8                 1208     1208     148
     Max          35      35      9                 1215     1215     155
     Sum        2779    2779    691                96917    96917   12051
 


     bravais-lattice index     =            2
     lattice parameter (alat)  =      20.1103  a.u.
     unit-cell volume          =    2033.2657 (a.u.)^3
     number of atoms/cell      =           54
     number of atomic types    =            2
     number of electrons       =       218.00
     number of Kohn-Sham states=          150
     kinetic-energy cutoff     =      50.0000  Ry
     charge density cutoff     =     200.0000  Ry
     convergence threshold     =      1.0E-10
     mixing beta               =       0.7000
     number of iterations used =            8  local-TF  mixing
     Exchange-correlation      = PBE ( 1  4  3  4 0 0)
     nstep                     =           50


     celldm(1)=  20.110277  celldm(2)=   0.000000  celldm(3)=   0.000000
     celldm(4)=   0.000000  celldm(5)=   0.000000  celldm(6)=   0.000000

     crystal axes: (cart. coord. in units of alat)
               a(1) = (  -0.500000   0.000000   0.500000 )  
               a(2) = (   0.000000   0.500000   0.500000 )  
               a(3) = (  -0.500000   0.500000   0.000000 )  

     reciprocal axes: (cart. coord. in units 2 pi/alat)
               b(1) = ( -1.000000 -1.000000  1.000000 )  
               b(2) = (  1.000000  1.000000  1.000000 )  
               b(3) = ( -1.000000  1.000000 -1.000000 )  


     PseudoPot. # 1 for C  read from file:
     ~/PseudoPotential/upf/C_ONCV_PBE-1.0.upf
     MD5 check sum: Not computed, couldn't open file
     Pseudo is Norm-conserving, Zval =  4.0
     Generated using ONCVPSP code by D. R. Hamann
     Using radial grid of  602 points,  4 beta functions with: 
                l(1) =   0
                l(2) =   0
                l(3) =   1
                l(4) =   1

     PseudoPot. # 2 for N  read from file:
     ~/PseudoPotential/upf/N_ONCV_PBE-1.0.upf
     MD5 check sum: Not computed, couldn't open file
     Pseudo is Norm-conserving, Zval =  5.0
     Generated using ONCVPSP code by D. R. Hamann
     Using radial grid of  602 points,  4 beta functions with: 
                l(1) =   0
                l(2) =   0
                l(3) =   1
                l(4) =   1

     atomic species   valence    mass     pseudopotential
        C              4.00    12.01100     C ( 1.00)
        N              5.00    14.00670     N ( 1.00)

     No symmetry found



   Cartesian axes

     site n.     atom                  positions (alat units)
         1           N   tau(   1) = (   0.0000000   0.0000000   0.0000000  )
         2           N   tau(   2) = (  -0.0833333   0.0833333   0.0833333  )
         3           C   tau(   3) = (  -0.1666667   0.1666667   0.0000000  )
         4           C   tau(   4) = (  -0.2500000   0.2500000   0.0833333  )
         5           C   tau(   5) = (  -0.3333333   0.3333333   0.0000000  )
         6           C   tau(   6) = (  -0.4166667   0.4166667   0.0833333  )
         7           C   tau(   7) = (   0.0000000   0.1666667   0.1666667  )
         8           C   tau(   8) = (  -0.0833333   0.2500000   0.2500000  )
         9           C   tau(   9) = (  -0.1666667   0.3333333   0.1666667  )
        10           C   tau(  10) = (  -0.2500000   0.4166667   0.2500000  )
        11           C   tau(  11) = (  -0.3333333   0.5000000   0.1666667  )
        12           C   tau(  12) = (  -0.4166667   0.5833333   0.2500000  )
        13           C   tau(  13) = (   0.0000000   0.3333333   0.3333333  )
        14           C   tau(  14) = (  -0.0833333   0.4166667   0.4166667  )
        15           C   tau(  15) = (  -0.1666667   0.5000000   0.3333333  )
        16           C   tau(  16) = (  -0.2500000   0.5833333   0.4166667  )
        17           C   tau(  17) = (  -0.3333333   0.6666667   0.3333333  )
        18           C   tau(  18) = (  -0.4166667   0.7500000   0.4166667  )
        19           C   tau(  19) = (  -0.1666667   0.0000000   0.1666667  )
        20           C   tau(  20) = (  -0.2500000   0.0833333   0.2500000  )
        21           C   tau(  21) = (  -0.3333333   0.1666667   0.1666667  )
        22           C   tau(  22) = (  -0.4166667   0.2500000   0.2500000  )
        23           C   tau(  23) = (  -0.5000000   0.3333333   0.1666667  )
        24           C   tau(  24) = (  -0.5833333   0.4166667   0.2500000  )
        25           C   tau(  25) = (  -0.1666667   0.1666667   0.3333333  )
        26           C   tau(  26) = (  -0.2500000   0.2500000   0.4166667  )
        27           C   tau(  27) = (  -0.3333333   0.3333333   0.3333333  )
        28           C   tau(  28) = (  -0.4166667   0.4166667   0.4166667  )
        29           C   tau(  29) = (  -0.5000000   0.5000000   0.3333333  )
        30           C   tau(  30) = (  -0.5833333   0.5833333   0.4166667  )
        31           C   tau(  31) = (  -0.1666667   0.3333333   0.5000000  )
        32           C   tau(  32) = (  -0.2500000   0.4166667   0.5833333  )
        33           C   tau(  33) = (  -0.3333333   0.5000000   0.5000000  )
        34           C   tau(  34) = (  -0.4166667   0.5833333   0.5833333  )
        35           C   tau(  35) = (  -0.5000000   0.6666667   0.5000000  )
        36           C   tau(  36) = (  -0.5833333   0.7500000   0.5833333  )
        37           C   tau(  37) = (  -0.3333333   0.0000000   0.3333333  )
        38           C   tau(  38) = (  -0.4166667   0.0833333   0.4166667  )
        39           C   tau(  39) = (  -0.5000000   0.1666667   0.3333333  )
        40           C   tau(  40) = (  -0.5833333   0.2500000   0.4166667  )
        41           C   tau(  41) = (  -0.6666667   0.3333333   0.3333333  )
        42           C   tau(  42) = (  -0.7500000   0.4166667   0.4166667  )
        43           C   tau(  43) = (  -0.3333333   0.1666667   0.5000000  )
        44           C   tau(  44) = (  -0.4166667   0.2500000   0.5833333  )
        45           C   tau(  45) = (  -0.5000000   0.3333333   0.5000000  )
        46           C   tau(  46) = (  -0.5833333   0.4166667   0.5833333  )
        47           C   tau(  47) = (  -0.6666667   0.5000000   0.5000000  )
        48           C   tau(  48) = (  -0.7500000   0.5833333   0.5833333  )
        49           C   tau(  49) = (  -0.3333333   0.3333333   0.6666667  )
        50           C   tau(  50) = (  -0.4166667   0.4166667   0.7500000  )
        51           C   tau(  51) = (  -0.5000000   0.5000000   0.6666667  )
        52           C   tau(  52) = (  -0.5833333   0.5833333   0.7500000  )
        53           C   tau(  53) = (  -0.6666667   0.6666667   0.6666667  )
        54           C   tau(  54) = (  -0.7500000   0.7500000   0.7500000  )

     number of k points=     1
                       cart. coord. in units 2pi/alat
        k(    1) = (   0.0000000   0.0000000   0.0000000), wk =   2.0000000

     Dense  grid:    96917 G-vectors     FFT dimensions: (  72,  72,  72)

     Estimated max dynamical RAM per process >       3.33MB

     Estimated total allocated dynamical RAM >     266.19MB

     Initial potential from superposition of free atoms

     starting charge  217.63256, renormalised to  218.00000
     Starting wfc are random

     total cpu time spent up to now is        1.3 secs

     per-process dynamical memory:    44.5 Mb

     Self-consistent Calculation

     iteration #  1     ecut=    50.00 Ry     beta=0.70
     CG style diagonalization
     ethr =  1.00E-02,  avg # of iterations = 11.9

     total cpu time spent up to now is        3.2 secs

     total energy              =    -629.58211259 Ry
     Harris-Foulkes estimate   =    -630.81342649 Ry
     estimated scf accuracy    <       3.92850307 Ry

     iteration #  2     ecut=    50.00 Ry     beta=0.70
     CG style diagonalization
     ethr =  1.80E-03,  avg # of iterations =  3.9

     total cpu time spent up to now is        3.8 secs

     total energy              =    -629.93468236 Ry
     Harris-Foulkes estimate   =    -630.27113811 Ry
     estimated scf accuracy    <       0.86255631 Ry

     iteration #  3     ecut=    50.00 Ry     beta=0.70
     CG style diagonalization
     c_bands:  2 eigenvalues not converged
     ethr =  3.96E-04,  avg # of iterations =  4.5

     total cpu time spent up to now is        4.5 secs

     total energy              =    -630.02887534 Ry
     Harris-Foulkes estimate   =    -630.03595820 Ry
     estimated scf accuracy    <       0.04915403 Ry

     iteration #  4     ecut=    50.00 Ry     beta=0.70
     CG style diagonalization
     c_bands:  2 eigenvalues not converged
     ethr =  2.25E-05,  avg # of iterations =  9.7

     total cpu time spent up to now is        5.8 secs

     total energy              =    -630.04655100 Ry
     Harris-Foulkes estimate   =    -630.04709024 Ry
     estimated scf accuracy    <       0.00628018 Ry

     iteration #  5     ecut=    50.00 Ry     beta=0.70
     CG style diagonalization
     c_bands:  3 eigenvalues not converged
     ethr =  2.88E-06,  avg # of iterations =  4.5

     total cpu time spent up to now is        6.4 secs

     total energy              =    -630.04762542 Ry
     Harris-Foulkes estimate   =    -630.04769936 Ry
     estimated scf accuracy    <       0.00081795 Ry

     iteration #  6     ecut=    50.00 Ry     beta=0.70
     CG style diagonalization
     c_bands:  2 eigenvalues not converged
     ethr =  3.75E-07,  avg # of iterations =  8.9

     total cpu time spent up to now is        7.7 secs

     total energy              =    -630.04768138 Ry
     Harris-Foulkes estimate   =    -630.04778111 Ry
     estimated scf accuracy    <       0.00026530 Ry

     iteration #  7     ecut=    50.00 Ry     beta=0.70
     CG style diagonalization
     c_bands:  3 eigenvalues not converged
     ethr =  1.22E-07,  avg # of iterations =  4.3

     total cpu time spent up to now is        8.3 secs

     total energy              =    -630.04769573 Ry
     Harris-Foulkes estimate   =    -630.04770964 Ry
     estimated scf accuracy    <       0.00003853 Ry

     iteration #  8     ecut=    50.00 Ry     beta=0.70
     CG style diagonalization
     c_bands:  1 eigenvalues not converged
     ethr =  1.77E-08,  avg # of iterations =  8.9

     total cpu time spent up to now is        9.5 secs

     total energy              =    -630.04770510 Ry
     Harris-Foulkes estimate   =    -630.04770594 Ry
     estimated scf accuracy    <       0.00000719 Ry

     iteration #  9     ecut=    50.00 Ry     beta=0.70
     CG style diagonalization
     c_bands:  4 eigenvalues not converged
     ethr =  3.30E-09,  avg # of iterations =  5.2

     total cpu time spent up to now is       10.2 secs

     total energy              =    -630.04770603 Ry
     Harris-Foulkes estimate   =    -630.04770738 Ry
     estimated scf accuracy    <       0.00000306 Ry

     iteration # 10     ecut=    50.00 Ry     beta=0.70
     CG style diagonalization
     c_bands:  3 eigenvalues not converged
     ethr =  1.40E-09,  avg # of iterations =  4.3

     total cpu time spent up to now is       10.8 secs

     total energy              =    -630.04770624 Ry
     Harris-Foulkes estimate   =    -630.04770638 Ry
     estimated scf accuracy    <       0.00000025 Ry

     iteration # 11     ecut=    50.00 Ry     beta=0.70
     CG style diagonalization
     c_bands:  3 eigenvalues not converged
     ethr =  1.17E-10,  avg # of iterations = 10.0

     total cpu time spent up to now is       12.2 secs

     total energy              =    -630.04770638 Ry
     Harris-Foulkes estimate   =    -630.04770647 Ry
     estimated scf accuracy    <       0.00000021 Ry

     iteration # 12     ecut=    50.00 Ry     beta=0.70
     CG style diagonalization
     c_bands:  3 eigenvalues not converged
     ethr =  9.77E-11,  avg # of iterations =  3.6

     total cpu time spent up to now is       12.8 secs

     total energy              =    -630.04770640 Ry
     Harris-Foulkes estimate   =    -630.04770641 Ry
     estimated scf accuracy    <       0.00000002 Ry

     iteration # 13     ecut=    50.00 Ry     beta=0.70
     CG style diagonalization
     c_bands:  3 eigenvalues not converged
     ethr =  7.00E-12,  avg # of iterations =  9.8

     total cpu time spent up to now is       14.2 secs

     total energy              =    -630.04770641 Ry
     Harris-Foulkes estimate   =    -630.04770641 Ry
     estimated scf accuracy    <          7.7E-09 Ry

     iteration # 14     ecut=    50.00 Ry     beta=0.70
     CG style diagonalization
     c_bands:  4 eigenvalues not converged
     ethr =  3.54E-12,  avg # of iterations =  4.3

     total cpu time spent up to now is       14.8 secs

     total energy              =    -630.04770641 Ry
     Harris-Foulkes estimate   =    -630.04770641 Ry
     estimated scf accuracy    <          3.6E-10 Ry

     iteration # 15     ecut=    50.00 Ry     beta=0.70
     CG style diagonalization
     c_bands:  4 eigenvalues not converged
     ethr =  1.66E-13,  avg # of iterations =  9.6

     total cpu time spent up to now is       16.0 secs

     End of self-consistent calculation

          k = 0.0000 0.0000 0.0000 ( 12051 PWs)   bands (ev):

    -8.7505  -6.8972  -5.8635  -4.9917  -4.9917  -4.9441  -4.9441  -4.8819
    -4.8495  -4.2205  -4.1477  -3.9637  -3.9637  -3.9009  -3.9009  -1.7501
    -1.4796  -0.5969  -0.5969  -0.5288  -0.5105  -0.5105  -0.4344  -0.4344
    -0.3973  -0.3740  -0.3740   1.5629   2.1368   2.4271   2.4271   2.5527
     2.5527   2.5919   2.7135   2.7135   2.7338   2.7338   2.7639   3.5239
     3.6689   3.6689   3.9251   3.9251   3.9686   4.0865   4.1369   4.1536
     4.1536   4.1919   4.1919   4.2720   4.2847   4.2847   4.2879   4.2879
     4.2997   4.3102   4.3362   6.1481   6.3312   6.3607   6.3607   6.4581
     6.4581   7.5482   7.7629   7.7629   7.9580   7.9580   8.2272   8.3222
     8.3453   8.3453   8.3516   8.3516   8.3624   8.7810   8.7810   8.7899
     8.8591   8.8591   8.9386   8.9475   8.9813   8.9813   8.9916   9.0404
     9.0404  10.8407  10.8407  10.8749  11.1064  11.1064  11.3134  11.3323
    11.3323  11.4124  11.4156  11.4156  11.4158  11.4220  11.4220  11.4827
    11.4827  13.6349  13.6349  13.6773  16.9175  17.1037  17.8101  17.8101
    17.8715  17.8715  18.6599  18.9004  19.1647  19.1647  19.6113  19.8320
    19.8900  19.8900  20.0590  20.0590  20.1283  20.1283  20.1469  20.1469
    20.1815  20.8970  21.2126  21.3015  21.4395  21.4395  21.5104  21.5104
    21.5860  21.5860  21.7104  21.7104  21.9690  22.0637  22.0704  22.0704
    22.1077  22.1418  22.1471  22.1472  22.1558  22.1563

     highest occupied, lowest unoccupied level (ev):    16.9175   17.1037

!    total energy              =    -630.04770641 Ry
     Harris-Foulkes estimate   =    -630.04770641 Ry
     estimated scf accuracy    <          6.9E-11 Ry

     The total energy is the sum of the following terms:

     one-electron contribution =     216.45974695 Ry
     hartree contribution      =      57.19392992 Ry
     xc contribution           =    -196.33777971 Ry
     ewald contribution        =    -707.36360356 Ry

     convergence has been achieved in  15 iterations

     Forces acting on atoms (cartesian axes, Ry/au):

     atom    1 type  2   force =     0.27366859   -0.27366855   -0.27366850
     atom    2 type  2   force =    -0.27366856    0.27366851    0.27366852
     atom    3 type  1   force =    -0.01940745    0.01940746    0.05428743
     atom    4 type  1   force =     0.03439451   -0.03439450    0.01082966
     atom    5 type  1   force =    -0.03439456    0.03439448   -0.01082964
     atom    6 type  1   force =     0.01940749   -0.01940752   -0.05428740
     atom    7 type  1   force =    -0.05428739    0.01940746    0.01940749
     atom    8 type  1   force =    -0.01082966   -0.03439450   -0.03439449
     atom    9 type  1   force =     0.00560581   -0.00548668   -0.00560581
     atom   10 type  1   force =    -0.00251446   -0.00640859    0.00251448
     atom   11 type  1   force =    -0.00270639    0.02013716   -0.00008117
     atom   12 type  1   force =    -0.00008117   -0.02013714   -0.00270635
     atom   13 type  1   force =     0.01082969    0.03439445    0.03439453
     atom   14 type  1   force =     0.05428732   -0.01940752   -0.01940751
     atom   15 type  1   force =     0.00008117    0.02013720    0.00270640
     atom   16 type  1   force =     0.00270632   -0.02013717    0.00008117
     atom   17 type  1   force =     0.00251442    0.00640861   -0.00251444
     atom   18 type  1   force =    -0.00560574    0.00548673    0.00560573
     atom   19 type  1   force =    -0.01940745    0.05428742    0.01940745
     atom   20 type  1   force =     0.03439445    0.01082965   -0.03439451
     atom   21 type  1   force =     0.00548671   -0.00560578   -0.00560578
     atom   22 type  1   force =     0.00640855    0.00251448    0.00251446
     atom   23 type  1   force =    -0.02013715    0.00270636   -0.00008117
     atom   24 type  1   force =     0.02013712    0.00008111   -0.00270629
     atom   25 type  1   force =     0.00560583   -0.00560580   -0.00548670
     atom   26 type  1   force =    -0.00251449    0.00251444   -0.00640852
     atom   27 type  1   force =    -0.00006835    0.00006832    0.00006833
     atom   28 type  1   force =     0.00205347   -0.00205348   -0.00205344
     atom   29 type  1   force =    -0.00537024    0.00537030   -0.00995028
     atom   30 type  1   force =    -0.00151523    0.00151512    0.00911455
     atom   31 type  1   force =     0.00008117    0.00270638    0.02013720
     atom   32 type  1   force =     0.00270633    0.00008113   -0.02013718
     atom   33 type  1   force =     0.00995028    0.00537027    0.00537023
     atom   34 type  1   force =    -0.00911456    0.00151509    0.00151515
     atom   35 type  1   force =     0.00151519   -0.00911465   -0.00151518
     atom   36 type  1   force =     0.00537022    0.00995034   -0.00537024
     atom   37 type  1   force =    -0.03439452   -0.01082967    0.03439449
     atom   38 type  1   force =     0.01940756   -0.05428735   -0.01940752
     atom   39 type  1   force =    -0.02013716   -0.00008111    0.00270632
     atom   40 type  1   force =     0.02013712   -0.00270635    0.00008111
     atom   41 type  1   force =    -0.00640856   -0.00251444   -0.00251449
     atom   42 type  1   force =    -0.00548672    0.00560574    0.00560574
     atom   43 type  1   force =    -0.00270632   -0.00008117    0.02013718
     atom   44 type  1   force =    -0.00008107   -0.00270634   -0.02013715
     atom   45 type  1   force =    -0.00537028   -0.00995023    0.00537029
     atom   46 type  1   force =    -0.00151517    0.00911457    0.00151516
     atom   47 type  1   force =     0.00911467   -0.00151517   -0.00151518
     atom   48 type  1   force =    -0.00995037   -0.00537018   -0.00537024
     atom   49 type  1   force =     0.00251445   -0.00251447    0.00640859
     atom   50 type  1   force =    -0.00560575    0.00560578    0.00548670
     atom   51 type  1   force =     0.00151523   -0.00151516   -0.00911463
     atom   52 type  1   force =     0.00537021   -0.00537021    0.00995031
     atom   53 type  1   force =    -0.00205343    0.00205346    0.00205344
     atom   54 type  1   force =     0.00006832   -0.00006829   -0.00006831

     Total force =     0.702705     Total SCF correction =     0.000011


     Computing stress (Cartesian axis) and pressure

          total   stress  (Ry/bohr**3)                   (kbar)     P=   -2.91
  -0.00001978  -0.00036971  -0.00036971         -2.91    -54.39    -54.39
  -0.00036971  -0.00001978   0.00036971        -54.39     -2.91     54.39
  -0.00036971   0.00036971  -0.00001978        -54.39     54.39     -2.91


     BFGS Geometry Optimization

     number of scf cycles    =   1
     number of bfgs steps    =   0

     enthalpy new            =    -630.0477064083 Ry

     new trust radius        =       0.4740078312 bohr
     new conv_thr            =            1.0E-10 Ry

     new unit-cell volume =   2029.73359 a.u.^3 (   300.77548 Ang^3 )
     density =      3.60283 g/cm^3

CELL_PARAMETERS (alat= 20.11027653)
  -0.504374194   0.009242824   0.504374192
  -0.009242825   0.504374192   0.504374192
  -0.504374194   0.504374192   0.009242824

ATOMIC_POSITIONS (crystal)
N       -0.013608393  -0.013608389  -0.013608398
N        0.096941728   0.096941722   0.096941727
C        0.002699486   0.002699488   0.332563950
C        0.083871847   0.083871848   0.412707563
C       -0.000538509  -0.000538516   0.670625771
C        0.080633849   0.080633847   0.750769377
C        0.002699486   0.332563953   0.002699484
C        0.083871847   0.412707564   0.083871846
C       -0.000284677   0.333060503   0.333060504
C        0.083902074   0.416347995   0.416347993
C       -0.000870796   0.334196056   0.667806618
C        0.084204130   0.415526719   0.749137276
C       -0.000538511   0.670625770  -0.000538519
C        0.080633853   0.750769372   0.080633851
C       -0.000870797   0.667806620   0.334196057
C        0.084204133   0.749137273   0.415526719
C       -0.000568738   0.666985339   0.666985341
C        0.083618001   0.750272831   0.750272833
C        0.332563950   0.002699487   0.002699486
C        0.412707566   0.083871844   0.083871849
C        0.333060502  -0.000284672   0.333060502
C        0.416347995   0.083902072   0.416347997
C        0.334196057  -0.000870796   0.667806615
C        0.415526726   0.084204129   0.749137271
C        0.333060501   0.333060504  -0.000284677
C        0.416348000   0.416347996   0.083902070
C        0.333336732   0.333336730   0.333336732
C        0.416564558   0.416564557   0.416564554
C        0.332838544   0.332838550   0.667695535
C        0.417119901   0.417119890   0.749697458
C        0.334196059   0.667806619  -0.000870798
C        0.415526720   0.749137271   0.084204131
C        0.332838546   0.667695533   0.332838549
C        0.417119898   0.749697452   0.417119893
C        0.333635879   0.666213434   0.666213433
C        0.415637800   0.750494787   0.750494790
C        0.670625770  -0.000538516  -0.000538512
C        0.750769372   0.080633852   0.080633848
C        0.667806610  -0.000870796   0.334196063
C        0.749137274   0.084204126   0.415526723
C        0.666985335  -0.000568739   0.666985340
C        0.750272832   0.083618001   0.750272832
C        0.667806615   0.334196061  -0.000870800
C        0.749137270   0.415526724   0.084204126
C        0.667695534   0.332838551   0.332838549
C        0.749697456   0.417119895   0.417119897
C        0.666213432   0.333635881   0.666213433
C        0.750494788   0.415637800   0.750494794
C        0.666985340   0.666985338  -0.000568739
C        0.750272829   0.750272833   0.083618005
C        0.666213431   0.666213437   0.333635877
C        0.750494788   0.750494787   0.415637803
C        0.666768774   0.666768777   0.666768777
C        0.749996602   0.749996605   0.749996604



     Writing output data file n2.save
     NEW-OLD atomic charge density approx. for the potential
     extrapolated charge  217.62128, renormalised to  218.00000

     total cpu time spent up to now is       16.4 secs

     per-process dynamical memory:    46.6 Mb

     Self-consistent Calculation

     iteration #  1     ecut=    50.00 Ry     beta=0.70
     CG style diagonalization
     c_bands:  2 eigenvalues not converged
     ethr =  1.00E-06,  avg # of iterations = 20.6

     total cpu time spent up to now is       19.4 secs

     total energy              =    -630.33941389 Ry
     Harris-Foulkes estimate   =    -630.17275151 Ry
     estimated scf accuracy    <       0.27191913 Ry

     iteration #  2     ecut=    50.00 Ry     beta=0.70
     CG style diagonalization
     ethr =  1.25E-04,  avg # of iterations =  3.3

     total cpu time spent up to now is       19.9 secs

     total energy              =    -630.35232480 Ry
     Harris-Foulkes estimate   =    -630.36284851 Ry
     estimated scf accuracy    <       0.04017896 Ry

     iteration #  3     ecut=    50.00 Ry     beta=0.70
     CG style diagonalization
     ethr =  1.84E-05,  avg # of iterations =  4.0

     total cpu time spent up to now is       20.5 secs

     total energy              =    -630.35628054 Ry
     Harris-Foulkes estimate   =    -630.35853656 Ry
     estimated scf accuracy    <       0.00592520 Ry

     iteration #  4     ecut=    50.00 Ry     beta=0.70
     CG style diagonalization
     ethr =  2.72E-06,  avg # of iterations =  4.3

     total cpu time spent up to now is       21.0 secs

     total energy              =    -630.35688328 Ry
     Harris-Foulkes estimate   =    -630.35724500 Ry
     estimated scf accuracy    <       0.00106461 Ry

     iteration #  5     ecut=    50.00 Ry     beta=0.70
     CG style diagonalization
     ethr =  4.88E-07,  avg # of iterations =  4.4

     total cpu time spent up to now is       21.6 secs

     total energy              =    -630.35699205 Ry
     Harris-Foulkes estimate   =    -630.35705763 Ry
     estimated scf accuracy    <       0.00016569 Ry

     iteration #  6     ecut=    50.00 Ry     beta=0.70
     CG style diagonalization
     ethr =  7.60E-08,  avg # of iterations =  5.0

     total cpu time spent up to now is       22.3 secs

     total energy              =    -630.35703610 Ry
     Harris-Foulkes estimate   =    -630.35705136 Ry
     estimated scf accuracy    <       0.00003625 Ry

     iteration #  7     ecut=    50.00 Ry     beta=0.70
     CG style diagonalization
     c_bands:  1 eigenvalues not converged
     ethr =  1.66E-08,  avg # of iterations =  4.0

     total cpu time spent up to now is       22.9 secs

     total energy              =    -630.35704158 Ry
     Harris-Foulkes estimate   =    -630.35704254 Ry
     estimated scf accuracy    <       0.00000264 Ry

     iteration #  8     ecut=    50.00 Ry     beta=0.70
     CG style diagonalization
     c_bands:  2 eigenvalues not converged
     ethr =  1.21E-09,  avg # of iterations =  5.7

     total cpu time spent up to now is       23.7 secs

     total energy              =    -630.35704263 Ry
     Harris-Foulkes estimate   =    -630.35704273 Ry
     estimated scf accuracy    <       0.00000032 Ry

     iteration #  9     ecut=    50.00 Ry     beta=0.70
     CG style diagonalization
     c_bands:  1 eigenvalues not converged
     ethr =  1.45E-10,  avg # of iterations =  4.2

     total cpu time spent up to now is       24.3 secs

     total energy              =    -630.35704264 Ry
     Harris-Foulkes estimate   =    -630.35704268 Ry
     estimated scf accuracy    <       0.00000007 Ry

     iteration # 10     ecut=    50.00 Ry     beta=0.70
     CG style diagonalization
     c_bands:  1 eigenvalues not converged
     ethr =  3.31E-11,  avg # of iterations =  4.8

     total cpu time spent up to now is       25.0 secs

     total energy              =    -630.35704266 Ry
     Harris-Foulkes estimate   =    -630.35704267 Ry
     estimated scf accuracy    <          9.1E-09 Ry

     iteration # 11     ecut=    50.00 Ry     beta=0.70
     CG style diagonalization
     c_bands:  2 eigenvalues not converged
     ethr =  4.19E-12,  avg # of iterations =  4.7

     total cpu time spent up to now is       25.7 secs

     total energy              =    -630.35704266 Ry
     Harris-Foulkes estimate   =    -630.35704267 Ry
     estimated scf accuracy    <          1.1E-09 Ry

     iteration # 12     ecut=    50.00 Ry     beta=0.70
     CG style diagonalization
     c_bands:  2 eigenvalues not converged
     ethr =  5.19E-13,  avg # of iterations =  5.5

     total cpu time spent up to now is       26.4 secs

     total energy              =    -630.35704267 Ry
     Harris-Foulkes estimate   =    -630.35704267 Ry
     estimated scf accuracy    <          7.3E-10 Ry

     iteration # 13     ecut=    50.00 Ry     beta=0.70
     CG style diagonalization
     c_bands:  2 eigenvalues not converged
     ethr =  3.34E-13,  avg # of iterations =  3.7

     total cpu time spent up to now is       26.9 secs

     End of self-consistent calculation

          k = 0.0000 0.0000 0.0000 ( 12051 PWs)   bands (ev):

    -8.3655  -6.5191  -6.1583  -5.0326  -4.9767  -4.9767  -4.9592  -4.9032
    -4.9032  -4.4210  -4.1275  -4.0131  -4.0131  -3.9206  -3.9206  -1.9134
    -1.0593  -0.7714  -0.7714  -0.6587  -0.6587  -0.5972  -0.4628  -0.4628
    -0.3552  -0.3142  -0.3142   1.5706   2.3636   2.3636   2.4679   2.4679
     2.5648   2.6373   2.6373   2.6500   2.7162   2.7225   2.7225   3.6095
     3.6095   3.7333   3.7987   3.9811   4.0625   4.0698   4.0698   4.0698
     4.0698   4.1587   4.2051   4.2153   4.2153   4.2983   4.3300   4.3300
     4.3315   4.3315   4.6914   6.0920   6.0940   6.0940   6.5173   6.5173
     6.8175   7.8044   7.8044   7.8980   7.8980   7.9492   8.1490   8.1490
     8.3586   8.3866   8.3866   8.4823   8.5019   8.6970   8.6970   8.7441
     8.7964   8.7964   8.9600   8.9600   9.0022   9.0022   9.0560   9.0734
     9.1546  10.8073  10.8073  11.1398  11.1398  11.1740  11.1740  11.1896
    11.2908  11.2996  11.2996  11.3818  11.3818  11.4063  11.6954  11.6954
    12.0334  13.6609  13.6609  13.8851  14.5727  17.5788  17.7598  17.7598
    18.1588  18.1588  18.3326  18.8904  19.3652  19.3652  19.7553  19.7553
    19.8774  19.9052  19.9856  20.2191  20.2191  20.4191  20.4191  20.4982
    20.4982  20.5503  21.1226  21.3011  21.4850  21.4850  21.5653  21.5653
    21.6472  21.7014  21.7014  21.7930  21.7930  21.9332  21.9654  21.9654
    21.9974  22.1947  22.1947  22.2852  22.2934  22.2934

     highest occupied, lowest unoccupied level (ev):    14.5727   17.5788

!    total energy              =    -630.35704267 Ry
     Harris-Foulkes estimate   =    -630.35704267 Ry
     estimated scf accuracy    <          6.1E-11 Ry

     The total energy is the sum of the following terms:

     one-electron contribution =     214.29799427 Ry
     hartree contribution      =      58.40569646 Ry
     xc contribution           =    -196.66733144 Ry
     ewald contribution        =    -706.39340195 Ry

     convergence has been achieved in  13 iterations

     Forces acting on atoms (cartesian axes, Ry/au):

     atom    1 type  2   force =     0.03630144   -0.03630158   -0.03630165
     atom    2 type  2   force =    -0.03630158    0.03630152    0.03630153
     atom    3 type  1   force =    -0.00074099    0.00074090    0.02745689
     atom    4 type  1   force =    -0.05202630    0.05202634   -0.03347500
     atom    5 type  1   force =     0.05202638   -0.05202634    0.03347496
     atom    6 type  1   force =     0.00074092   -0.00074085   -0.02745692
     atom    7 type  1   force =    -0.02745693    0.00074086    0.00074085
     atom    8 type  1   force =     0.03347503    0.05202628    0.05202633
     atom    9 type  1   force =    -0.00274712   -0.00376194    0.00274713
     atom   10 type  1   force =     0.00782344   -0.00119310   -0.00782344
     atom   11 type  1   force =    -0.01525568   -0.00964925   -0.01468627
     atom   12 type  1   force =    -0.01468633    0.00964922   -0.01525571
     atom   13 type  1   force =    -0.03347504   -0.05202623   -0.05202640
     atom   14 type  1   force =     0.02745705   -0.00074079   -0.00074081
     atom   15 type  1   force =     0.01468628   -0.00964926    0.01525567
     atom   16 type  1   force =     0.01525574    0.00964928    0.01468631
     atom   17 type  1   force =    -0.00782338    0.00119313    0.00782340
     atom   18 type  1   force =     0.00274704    0.00376186   -0.00274700
     atom   19 type  1   force =    -0.00074092    0.02745691    0.00074088
     atom   20 type  1   force =    -0.05202623   -0.03347498    0.05202630
     atom   21 type  1   force =     0.00376188    0.00274710    0.00274707
     atom   22 type  1   force =     0.00119318   -0.00782342   -0.00782345
     atom   23 type  1   force =     0.00964925    0.01525570   -0.01468626
     atom   24 type  1   force =    -0.00964918    0.01468641   -0.01525577
     atom   25 type  1   force =    -0.00274715    0.00274713   -0.00376202
     atom   26 type  1   force =     0.00782346   -0.00782340   -0.00119320
     atom   27 type  1   force =    -0.00431290    0.00431290    0.00431291
     atom   28 type  1   force =    -0.00024331    0.00024334    0.00024325
     atom   29 type  1   force =     0.00834737   -0.00834745    0.01711240
     atom   30 type  1   force =     0.00355288   -0.00355271   -0.01231040
     atom   31 type  1   force =     0.01468625    0.01525569   -0.00964931
     atom   32 type  1   force =     0.01525576    0.01468636    0.00964930
     atom   33 type  1   force =    -0.01711243   -0.00834738   -0.00834735
     atom   34 type  1   force =     0.01231042   -0.00355266   -0.00355277
     atom   35 type  1   force =    -0.00355277    0.01231046    0.00355277
     atom   36 type  1   force =    -0.00834727   -0.01711249    0.00834734
     atom   37 type  1   force =     0.05202633    0.03347499   -0.05202630
     atom   38 type  1   force =     0.00074078   -0.02745699   -0.00074080
     atom   39 type  1   force =     0.00964924   -0.01468635    0.01525573
     atom   40 type  1   force =    -0.00964922   -0.01525569    0.01468634
     atom   41 type  1   force =    -0.00119320    0.00782339    0.00782346
     atom   42 type  1   force =    -0.00376186   -0.00274706   -0.00274702
     atom   43 type  1   force =    -0.01525576   -0.01468628   -0.00964930
     atom   44 type  1   force =    -0.01468640   -0.01525573    0.00964927
     atom   45 type  1   force =     0.00834737    0.01711237   -0.00834739
     atom   46 type  1   force =     0.00355278   -0.01231037   -0.00355277
     atom   47 type  1   force =    -0.01231054    0.00355272    0.00355277
     atom   48 type  1   force =     0.01711255    0.00834726    0.00834736
     atom   49 type  1   force =    -0.00782337    0.00782344    0.00119316
     atom   50 type  1   force =     0.00274703   -0.00274712    0.00376201
     atom   51 type  1   force =    -0.00355284    0.00355273    0.01231050
     atom   52 type  1   force =    -0.00834732    0.00834735   -0.01711243
     atom   53 type  1   force =     0.00024322   -0.00024326   -0.00024323
     atom   54 type  1   force =     0.00431294   -0.00431295   -0.00431290

     Total force =     0.250647     Total SCF correction =     0.000010


     Computing stress (Cartesian axis) and pressure

          total   stress  (Ry/bohr**3)                   (kbar)     P=   -4.71
  -0.00003203   0.00039726   0.00039726         -4.71     58.44     58.44
   0.00039726  -0.00003203  -0.00039726         58.44     -4.71    -58.44
   0.00039726  -0.00039726  -0.00003203         58.44    -58.44     -4.71


     number of scf cycles    =   2
     number of bfgs steps    =   1

     enthalpy old            =    -630.0477064083 Ry
     enthalpy new            =    -630.3570426654 Ry

     CASE: enthalpy_new < enthalpy_old

     new trust radius        =       0.1630694116 bohr
     new conv_thr            =            5.2E-11 Ry

     new unit-cell volume =   2025.88072 a.u.^3 (   300.20455 Ang^3 )
     density =      3.60968 g/cm^3

CELL_PARAMETERS (alat= 20.11027653)
  -0.500067173   0.001344697   0.500067173
  -0.001344699   0.500067171   0.500067171
  -0.500067173   0.500067173   0.001344698

ATOMIC_POSITIONS (crystal)
N       -0.018207246  -0.018207255  -0.018207246
N        0.101540585   0.101540574   0.101540584
C        0.004608128   0.004608122   0.331147231
C        0.082372667   0.082372673   0.418676246
C        0.000960666   0.000960661   0.664657085
C        0.078725207   0.078725211   0.752186102
C        0.004608126   0.331147224   0.004608124
C        0.082372671   0.418676247   0.082372665
C        0.000111952   0.332821351   0.332821350
C        0.083301535   0.416216948   0.416216946
C       -0.000551208   0.332426570   0.669029270
C        0.083884546   0.414304061   0.750906764
C        0.000960661   0.664657086   0.000960667
C        0.078725207   0.752186111   0.078725207
C       -0.000551210   0.669029272   0.332426572
C        0.083884543   0.750906764   0.414304064
C        0.000031795   0.667116389   0.667116389
C        0.083221382   0.750511983   0.750511982
C        0.331147225   0.004608124   0.004608126
C        0.418676243   0.082372671   0.082372669
C        0.332821350   0.000111952   0.332821352
C        0.416216943   0.083301537   0.416216947
C        0.332426572  -0.000551207   0.669029268
C        0.414304061   0.083884547   0.750906763
C        0.332821345   0.332821346   0.000111959
C        0.416216946   0.416216947   0.083301536
C        0.333554779   0.333554776   0.333554777
C        0.416556036   0.416556038   0.416556040
C        0.333576957   0.333576956   0.666247759
C        0.416599744   0.416599748   0.749882164
C        0.332426571   0.669029268  -0.000551207
C        0.414304063   0.750906767   0.083884542
C        0.333576958   0.666247758   0.333576958
C        0.416599744   0.749882165   0.416599748
C        0.333451169   0.666733584   0.666733583
C        0.417085572   0.749756377   0.749756373
C        0.664657088   0.000960663   0.000960664
C        0.752186108   0.078725209   0.078725207
C        0.669029268  -0.000551210   0.332426572
C        0.750906762   0.083884543   0.414304066
C        0.667116390   0.000031794   0.667116389
C        0.750511984   0.083221381   0.750511980
C        0.669029268   0.332426569  -0.000551208
C        0.750906763   0.414304066   0.083884541
C        0.666247761   0.333576958   0.333576958
C        0.749882161   0.416599749   0.416599749
C        0.666733588   0.333451165   0.666733585
C        0.749756376   0.417085574   0.749756373
C        0.667116387   0.667116391   0.000031793
C        0.750511991   0.750511986   0.083221375
C        0.666733588   0.666733585   0.333451167
C        0.749756376   0.749756378   0.417085575
C        0.666777297   0.666777297   0.666777298
C        0.749778556   0.749778559   0.749778555



     Writing output data file n2.save
     NEW-OLD atomic charge density approx. for the potential
     extrapolated charge  217.58610, renormalised to  218.00000

     total cpu time spent up to now is       27.2 secs

     per-process dynamical memory:    46.6 Mb

     Self-consistent Calculation

     iteration #  1     ecut=    50.00 Ry     beta=0.70
     CG style diagonalization
     ethr =  1.00E-06,  avg # of iterations = 18.7

     total cpu time spent up to now is       29.9 secs

     total energy              =    -630.39223382 Ry
     Harris-Foulkes estimate   =    -630.13416121 Ry
     estimated scf accuracy    <       0.02328614 Ry

     iteration #  2     ecut=    50.00 Ry     beta=0.70
     CG style diagonalization
     ethr =  1.07E-05,  avg # of iterations =  3.1

     total cpu time spent up to now is       30.3 secs

     total energy              =    -630.39263340 Ry
     Harris-Foulkes estimate   =    -630.39382895 Ry
     estimated scf accuracy    <       0.00346444 Ry

     iteration #  3     ecut=    50.00 Ry     beta=0.70
     CG style diagonalization
     ethr =  1.59E-06,  avg # of iterations =  4.3

     total cpu time spent up to now is       30.9 secs

     total energy              =    -630.39323572 Ry
     Harris-Foulkes estimate   =    -630.39328642 Ry
     estimated scf accuracy    <       0.00012181 Ry

     iteration #  4     ecut=    50.00 Ry     beta=0.70
     CG style diagonalization
     ethr =  5.59E-08,  avg # of iterations =  5.3

     total cpu time spent up to now is       31.6 secs

     total energy              =    -630.39327585 Ry
     Harris-Foulkes estimate   =    -630.39328143 Ry
     estimated scf accuracy    <       0.00001376 Ry

     iteration #  5     ecut=    50.00 Ry     beta=0.70
     CG style diagonalization
     ethr =  6.31E-09,  avg # of iterations =  4.4

     total cpu time spent up to now is       32.3 secs

     total energy              =    -630.39327839 Ry
     Harris-Foulkes estimate   =    -630.39327868 Ry
     estimated scf accuracy    <       0.00000114 Ry

     iteration #  6     ecut=    50.00 Ry     beta=0.70
     CG style diagonalization
     ethr =  5.23E-10,  avg # of iterations =  4.6

     total cpu time spent up to now is       32.9 secs

     total energy              =    -630.39327859 Ry
     Harris-Foulkes estimate   =    -630.39327869 Ry
     estimated scf accuracy    <       0.00000030 Ry

     iteration #  7     ecut=    50.00 Ry     beta=0.70
     CG style diagonalization
     ethr =  1.35E-10,  avg # of iterations =  3.9

     total cpu time spent up to now is       33.5 secs

     total energy              =    -630.39327861 Ry
     Harris-Foulkes estimate   =    -630.39327863 Ry
     estimated scf accuracy    <       0.00000004 Ry

     iteration #  8     ecut=    50.00 Ry     beta=0.70
     CG style diagonalization
     ethr =  1.98E-11,  avg # of iterations =  4.5

     total cpu time spent up to now is       34.1 secs

     total energy              =    -630.39327862 Ry
     Harris-Foulkes estimate   =    -630.39327862 Ry
     estimated scf accuracy    <          7.6E-09 Ry

     iteration #  9     ecut=    50.00 Ry     beta=0.70
     CG style diagonalization
     ethr =  3.50E-12,  avg # of iterations =  4.5

     total cpu time spent up to now is       34.7 secs

     total energy              =    -630.39327862 Ry
     Harris-Foulkes estimate   =    -630.39327862 Ry
     estimated scf accuracy    <          1.4E-09 Ry

     iteration # 10     ecut=    50.00 Ry     beta=0.70
     CG style diagonalization
     ethr =  6.47E-13,  avg # of iterations =  4.4

     total cpu time spent up to now is       35.3 secs

     total energy              =    -630.39327862 Ry
     Harris-Foulkes estimate   =    -630.39327862 Ry
     estimated scf accuracy    <          3.0E-10 Ry

     iteration # 11     ecut=    50.00 Ry     beta=0.70
     CG style diagonalization
     ethr =  1.36E-13,  avg # of iterations =  4.5

     total cpu time spent up to now is       36.0 secs

     total energy              =    -630.39327862 Ry
     Harris-Foulkes estimate   =    -630.39327862 Ry
     estimated scf accuracy    <          6.4E-11 Ry

     iteration # 12     ecut=    50.00 Ry     beta=0.70
     CG style diagonalization
     ethr =  1.00E-13,  avg # of iterations =  3.1

     total cpu time spent up to now is       36.4 secs

     End of self-consistent calculation

          k = 0.0000 0.0000 0.0000 ( 12051 PWs)   bands (ev):

    -8.3977  -6.6858  -6.1885  -4.9805  -4.9805  -4.9689  -4.9689  -4.8977
    -4.8900  -4.4174  -4.0963  -4.0333  -4.0333  -3.8764  -3.8764  -1.7215
    -1.1617  -0.7853  -0.7853  -0.5481  -0.5481  -0.4869  -0.4869  -0.4222
    -0.4058  -0.3904  -0.3904   1.5642   2.2767   2.2767   2.2787   2.2787
     2.5796   2.6474   2.7333   2.7406   2.7406   2.7777   2.7777   3.6076
     3.6076   3.8111   3.9587   4.0282   4.0282   4.1016   4.1667   4.1684
     4.1684   4.1858   4.2110   4.2339   4.2547   4.2547   4.3082   4.3082
     4.3118   4.3118   4.6237   6.1724   6.1816   6.1816   6.5523   6.5523
     6.6266   7.5916   7.5916   7.9714   7.9714   8.1433   8.2732   8.2732
     8.3174   8.3174   8.3963   8.4414   8.5301   8.7555   8.7555   8.8336
     8.8336   8.8874   8.9261   8.9261   9.0210   9.0210   9.0274   9.1176
     9.3337  10.7459  10.7459  11.1660  11.1660  11.2131  11.2719  11.2719
    11.3156  11.3156  11.4255  11.4255  11.4763  11.4763  11.4951  11.5475
    12.2686  13.6806  13.6806  14.0995  14.1452  17.6276  17.8148  17.8148
    18.1170  18.1170  18.5578  19.1876  19.1876  19.3894  19.8661  19.9508
    20.0156  20.0156  20.1288  20.1288  20.1582  20.2689  20.2689  20.4439
    20.4439  20.9204  21.2456  21.4428  21.4428  21.5961  21.5961  21.7151
    21.7585  21.9371  21.9371  21.9983  22.0032  22.0032  22.0071  22.0071
    22.0556  22.2042  22.2469  22.2469  22.2607  22.2607

     highest occupied, lowest unoccupied level (ev):    14.1452   17.6276

!    total energy              =    -630.39327862 Ry
     Harris-Foulkes estimate   =    -630.39327862 Ry
     estimated scf accuracy    <          1.7E-12 Ry

     The total energy is the sum of the following terms:

     one-electron contribution =     213.66719989 Ry
     hartree contribution      =      58.90789804 Ry
     xc contribution           =    -196.80542729 Ry
     ewald contribution        =    -706.16294925 Ry

     convergence has been achieved in  12 iterations

     Forces acting on atoms (cartesian axes, Ry/au):

     atom    1 type  2   force =    -0.02468196    0.02468210    0.02468217
     atom    2 type  2   force =     0.02468214   -0.02468200   -0.02468208
     atom    3 type  1   force =    -0.00940493    0.00940499   -0.00772498
     atom    4 type  1   force =    -0.01063268    0.01063261    0.01704228
     atom    5 type  1   force =     0.01063265   -0.01063258   -0.01704226
     atom    6 type  1   force =     0.00940492   -0.00940498    0.00772495
     atom    7 type  1   force =     0.00772495    0.00940499    0.00940499
     atom    8 type  1   force =    -0.01704231    0.01063267    0.01063256
     atom    9 type  1   force =     0.00000874    0.01225347   -0.00000871
     atom   10 type  1   force =    -0.00563738    0.00565763    0.00563738
     atom   11 type  1   force =     0.00326505   -0.00328828   -0.01456537
     atom   12 type  1   force =    -0.01456532    0.00328829    0.00326500
     atom   13 type  1   force =     0.01704228   -0.01063268   -0.01063256
     atom   14 type  1   force =    -0.00772504   -0.00940503   -0.00940506
     atom   15 type  1   force =     0.01456537   -0.00328828   -0.00326501
     atom   16 type  1   force =    -0.00326504    0.00328827    0.01456533
     atom   17 type  1   force =     0.00563735   -0.00565768   -0.00563736
     atom   18 type  1   force =    -0.00000872   -0.01225345    0.00000868
     atom   19 type  1   force =    -0.00940500   -0.00772498    0.00940502
     atom   20 type  1   force =    -0.01063269    0.01704226    0.01063263
     atom   21 type  1   force =    -0.01225342   -0.00000872   -0.00000872
     atom   22 type  1   force =    -0.00565767    0.00563735    0.00563739
     atom   23 type  1   force =     0.00328829   -0.00326500   -0.01456539
     atom   24 type  1   force =    -0.00328831    0.01456531    0.00326499
     atom   25 type  1   force =     0.00000875   -0.00000873    0.01225355
     atom   26 type  1   force =    -0.00563738    0.00563737    0.00565761
     atom   27 type  1   force =     0.00856648   -0.00856643   -0.00856645
     atom   28 type  1   force =    -0.00112547    0.00112543    0.00112549
     atom   29 type  1   force =     0.00290496   -0.00290494   -0.00741318
     atom   30 type  1   force =    -0.00273030    0.00273022    0.00411989
     atom   31 type  1   force =     0.01456541   -0.00326503   -0.00328826
     atom   32 type  1   force =    -0.00326505    0.01456532    0.00328826
     atom   33 type  1   force =     0.00741322   -0.00290496   -0.00290497
     atom   34 type  1   force =    -0.00411992    0.00273020    0.00273027
     atom   35 type  1   force =     0.00273022   -0.00411987   -0.00273023
     atom   36 type  1   force =    -0.00290503    0.00741321    0.00290499
     atom   37 type  1   force =     0.01063266   -0.01704226   -0.01063261
     atom   38 type  1   force =     0.00940498    0.00772498   -0.00940503
     atom   39 type  1   force =     0.00328828   -0.01456535   -0.00326499
     atom   40 type  1   force =    -0.00328828    0.00326499    0.01456537
     atom   41 type  1   force =     0.00565771   -0.00563734   -0.00563736
     atom   42 type  1   force =     0.01225341    0.00000872    0.00000870
     atom   43 type  1   force =     0.00326503   -0.01456537   -0.00328824
     atom   44 type  1   force =    -0.01456536    0.00326501    0.00328825
     atom   45 type  1   force =     0.00290499   -0.00741320   -0.00290499
     atom   46 type  1   force =    -0.00273025    0.00411986    0.00273027
     atom   47 type  1   force =     0.00411994   -0.00273019   -0.00273023
     atom   48 type  1   force =    -0.00741324    0.00290499    0.00290497
     atom   49 type  1   force =     0.00563733   -0.00563736   -0.00565764
     atom   50 type  1   force =    -0.00000870    0.00000874   -0.01225355
     atom   51 type  1   force =     0.00273025   -0.00273020   -0.00411990
     atom   52 type  1   force =    -0.00290497    0.00290495    0.00741318
     atom   53 type  1   force =     0.00112553   -0.00112550   -0.00112551
     atom   54 type  1   force =    -0.00856648    0.00856645    0.00856643

     Total force =     0.116284     Total SCF correction =     0.000004


     Computing stress (Cartesian axis) and pressure

          total   stress  (Ry/bohr**3)                   (kbar)     P=    6.81
   0.00004630  -0.00026341  -0.00026341          6.81    -38.75    -38.75
  -0.00026341   0.00004630   0.00026341        -38.75      6.81     38.75
  -0.00026341   0.00026341   0.00004630        -38.75     38.75      6.81


     number of scf cycles    =   3
     number of bfgs steps    =   2

     enthalpy old            =    -630.3570426654 Ry
     enthalpy new            =    -630.3932786199 Ry

     CASE: enthalpy_new < enthalpy_old

     new trust radius        =       0.0469224563 bohr
     new conv_thr            =            2.5E-11 Ry

     new unit-cell volume =   2030.59846 a.u.^3 (   300.90364 Ang^3 )
     density =      3.60130 g/cm^3

CELL_PARAMETERS (alat= 20.11027653)
  -0.502288465   0.004989567   0.502288465
  -0.004989565   0.502288467   0.502288467
  -0.502288465   0.502288465   0.004989567

ATOMIC_POSITIONS (crystal)
N       -0.017103070  -0.017103070  -0.017103074
N        0.100436403   0.100436401   0.100436407
C        0.004385888   0.004385885   0.332021513
C        0.082827273   0.082827274   0.419621624
C        0.000506060   0.000506060   0.663711708
C        0.078947446   0.078947446   0.751311823
C        0.004385888   0.332021506   0.004385886
C        0.082827272   0.419621622   0.082827273
C       -0.000286771   0.333263100   0.333263097
C        0.083422206   0.416428621   0.416428619
C       -0.001015070   0.331668667   0.669391841
C        0.084348404   0.413941490   0.751664667
C        0.000506061   0.663711710   0.000506060
C        0.078947446   0.751311823   0.078947448
C       -0.001015071   0.669391844   0.331668667
C        0.084348404   0.751664667   0.413941494
C       -0.000088873   0.666904714   0.666904714
C        0.083620105   0.750070234   0.750070235
C        0.332021510   0.004385886   0.004385887
C        0.419621622   0.082827272   0.082827275
C        0.333263097  -0.000286770   0.333263100
C        0.416428619   0.083422207   0.416428620
C        0.331668666  -0.001015068   0.669391840
C        0.413941490   0.084348404   0.751664668
C        0.333263096   0.333263097  -0.000286769
C        0.416428618   0.416428618   0.083422208
C        0.333259154   0.333259155   0.333259154
C        0.416601757   0.416601757   0.416601758
C        0.333400492   0.333400492   0.666111912
C        0.416678398   0.416678398   0.749965085
C        0.331668666   0.669391841  -0.001015070
C        0.413941492   0.751664668   0.084348403
C        0.333400492   0.666111912   0.333400492
C        0.416678399   0.749965085   0.416678399
C        0.333368248   0.666654933   0.666654933
C        0.417221421   0.749932841   0.749932840
C        0.663711711   0.000506061   0.000506058
C        0.751311826   0.078947445   0.078947447
C        0.669391841  -0.001015069   0.331668667
C        0.751664667   0.084348403   0.413941493
C        0.666904714  -0.000088873   0.666904714
C        0.750070237   0.083620103   0.750070234
C        0.669391841   0.331668666  -0.001015070
C        0.751664668   0.413941492   0.084348403
C        0.666111912   0.333400493   0.333400492
C        0.749965084   0.416678400   0.416678399
C        0.666654934   0.333368247   0.666654934
C        0.749932842   0.417221421   0.749932840
C        0.666904714   0.666904717  -0.000088876
C        0.750070238   0.750070236   0.083620102
C        0.666654935   0.666654935   0.333368247
C        0.749932841   0.749932842   0.417221422
C        0.666731576   0.666731577   0.666731576
C        0.750074179   0.750074180   0.750074179



     Writing output data file n2.save
     NEW-OLD atomic charge density approx. for the potential
     extrapolated charge  218.50563, renormalised to  218.00000

     total cpu time spent up to now is       36.7 secs

     per-process dynamical memory:    46.6 Mb

     Self-consistent Calculation

     iteration #  1     ecut=    50.00 Ry     beta=0.70
     CG style diagonalization
     ethr =  1.00E-06,  avg # of iterations = 15.7

     total cpu time spent up to now is       38.9 secs

     total energy              =    -630.40323783 Ry
     Harris-Foulkes estimate   =    -630.72674503 Ry
     estimated scf accuracy    <       0.00409427 Ry

     iteration #  2     ecut=    50.00 Ry     beta=0.70
     CG style diagonalization
     ethr =  1.88E-06,  avg # of iterations =  3.3

     total cpu time spent up to now is       39.5 secs

     total energy              =    -630.40338789 Ry
     Harris-Foulkes estimate   =    -630.40368426 Ry
     estimated scf accuracy    <       0.00070529 Ry

     iteration #  3     ecut=    50.00 Ry     beta=0.70
     CG style diagonalization
     ethr =  3.24E-07,  avg # of iterations =  4.1

     total cpu time spent up to now is       40.1 secs

     total energy              =    -630.40348414 Ry
     Harris-Foulkes estimate   =    -630.40349417 Ry
     estimated scf accuracy    <       0.00002882 Ry

     iteration #  4     ecut=    50.00 Ry     beta=0.70
     CG style diagonalization
     ethr =  1.32E-08,  avg # of iterations =  5.4

     total cpu time spent up to now is       40.8 secs

     total energy              =    -630.40349294 Ry
     Harris-Foulkes estimate   =    -630.40349539 Ry
     estimated scf accuracy    <       0.00000700 Ry

     iteration #  5     ecut=    50.00 Ry     beta=0.70
     CG style diagonalization
     ethr =  3.21E-09,  avg # of iterations =  3.7

     total cpu time spent up to now is       41.3 secs

     total energy              =    -630.40349348 Ry
     Harris-Foulkes estimate   =    -630.40349375 Ry
     estimated scf accuracy    <       0.00000105 Ry

     iteration #  6     ecut=    50.00 Ry     beta=0.70
     CG style diagonalization
     ethr =  4.83E-10,  avg # of iterations =  4.3

     total cpu time spent up to now is       42.0 secs

     total energy              =    -630.40349349 Ry
     Harris-Foulkes estimate   =    -630.40349362 Ry
     estimated scf accuracy    <       0.00000031 Ry

     iteration #  7     ecut=    50.00 Ry     beta=0.70
     CG style diagonalization
     ethr =  1.43E-10,  avg # of iterations =  4.3

     total cpu time spent up to now is       42.6 secs

     total energy              =    -630.40349354 Ry
     Harris-Foulkes estimate   =    -630.40349355 Ry
     estimated scf accuracy    <       0.00000002 Ry

     iteration #  8     ecut=    50.00 Ry     beta=0.70
     CG style diagonalization
     c_bands:  2 eigenvalues not converged
     ethr =  8.95E-12,  avg # of iterations =  5.5

     total cpu time spent up to now is       43.4 secs

     total energy              =    -630.40349354 Ry
     Harris-Foulkes estimate   =    -630.40349355 Ry
     estimated scf accuracy    <          5.1E-09 Ry

     iteration #  9     ecut=    50.00 Ry     beta=0.70
     CG style diagonalization
     ethr =  2.36E-12,  avg # of iterations =  4.2

     total cpu time spent up to now is       43.9 secs

     total energy              =    -630.40349354 Ry
     Harris-Foulkes estimate   =    -630.40349354 Ry
     estimated scf accuracy    <          7.8E-10 Ry

     iteration # 10     ecut=    50.00 Ry     beta=0.70
     CG style diagonalization
     c_bands:  2 eigenvalues not converged
     ethr =  3.56E-13,  avg # of iterations =  4.4

     total cpu time spent up to now is       44.5 secs

     total energy              =    -630.40349354 Ry
     Harris-Foulkes estimate   =    -630.40349354 Ry
     estimated scf accuracy    <          3.4E-10 Ry

     iteration # 11     ecut=    50.00 Ry     beta=0.70
     CG style diagonalization
     ethr =  1.55E-13,  avg # of iterations =  5.0

     total cpu time spent up to now is       45.2 secs

     total energy              =    -630.40349354 Ry
     Harris-Foulkes estimate   =    -630.40349354 Ry
     estimated scf accuracy    <          1.5E-10 Ry

     iteration # 12     ecut=    50.00 Ry     beta=0.70
     CG style diagonalization
     ethr =  1.00E-13,  avg # of iterations =  3.4

     total cpu time spent up to now is       45.7 secs

     End of self-consistent calculation

          k = 0.0000 0.0000 0.0000 ( 12051 PWs)   bands (ev):

    -8.3818  -6.6116  -6.1478  -4.9851  -4.9851  -4.9773  -4.9773  -4.9693
    -4.9294  -4.4462  -4.1302  -4.0461  -4.0461  -3.9085  -3.9085  -1.7855
    -1.1219  -0.7444  -0.7444  -0.6513  -0.6513  -0.5361  -0.4778  -0.4778
    -0.4453  -0.4453  -0.3443   1.5171   2.2704   2.2704   2.3172   2.3172
     2.5978   2.6337   2.6528   2.7058   2.7058   2.7246   2.7246   3.6298
     3.6298   3.8346   3.8949   4.0176   4.0176   4.0596   4.1283   4.1442
     4.1442   4.1487   4.1506   4.2203   4.2260   4.2260   4.2715   4.2715
     4.2840   4.2840   4.5525   6.1380   6.1690   6.1690   6.4961   6.5032
     6.5032   7.6601   7.6601   7.9983   7.9983   8.0673   8.2197   8.2197
     8.2238   8.2238   8.4050   8.4580   8.4662   8.7295   8.7295   8.8122
     8.8122   8.8337   8.8876   8.8876   8.9649   8.9649   9.0175   9.1235
     9.2866  10.6482  10.6482  11.2021  11.2021  11.2048  11.2911  11.2911
    11.3140  11.3140  11.3425  11.3425  11.3590  11.4162  11.4200  11.4200
    12.2212  13.5814  13.5814  14.1064  14.2314  17.5682  17.7815  17.7815
    18.0471  18.0471  18.4876  19.1482  19.2920  19.2920  19.7557  19.9396
    19.9396  19.9785  20.0038  20.1779  20.1779  20.2503  20.2503  20.3183
    20.3183  20.7491  21.2200  21.4375  21.4375  21.5486  21.5486  21.5746
    21.7964  21.7964  21.8825  21.8825  21.9054  21.9077  21.9509  21.9509
    22.0254  22.1517  22.1517  22.1718  22.1718  22.2200

     highest occupied, lowest unoccupied level (ev):    14.2314   17.5682

!    total energy              =    -630.40349354 Ry
     Harris-Foulkes estimate   =    -630.40349354 Ry
     estimated scf accuracy    <          6.3E-12 Ry

     The total energy is the sum of the following terms:

     one-electron contribution =     213.30255299 Ry
     hartree contribution      =      58.80384583 Ry
     xc contribution           =    -196.69418245 Ry
     ewald contribution        =    -705.81570990 Ry

     convergence has been achieved in  12 iterations

     Forces acting on atoms (cartesian axes, Ry/au):

     atom    1 type  2   force =    -0.00579018    0.00579015    0.00579013
     atom    2 type  2   force =     0.00579015   -0.00579016   -0.00579013
     atom    3 type  1   force =    -0.00818515    0.00818518    0.01248508
     atom    4 type  1   force =     0.00927148   -0.00927148    0.00887309
     atom    5 type  1   force =    -0.00927150    0.00927148   -0.00887309
     atom    6 type  1   force =     0.00818518   -0.00818517   -0.01248507
     atom    7 type  1   force =    -0.01248507    0.00818520    0.00818517
     atom    8 type  1   force =    -0.00887309   -0.00927146   -0.00927146
     atom    9 type  1   force =    -0.00653727    0.01266966    0.00653725
     atom   10 type  1   force =     0.00123562    0.00464990   -0.00123561
     atom   11 type  1   force =    -0.00397422    0.00285902    0.00147099
     atom   12 type  1   force =     0.00147102   -0.00285902   -0.00397421
     atom   13 type  1   force =     0.00887309    0.00927146    0.00927147
     atom   14 type  1   force =     0.01248509   -0.00818518   -0.00818515
     atom   15 type  1   force =    -0.00147101    0.00285902    0.00397421
     atom   16 type  1   force =     0.00397422   -0.00285903   -0.00147101
     atom   17 type  1   force =    -0.00123562   -0.00464990    0.00123561
     atom   18 type  1   force =     0.00653727   -0.01266965   -0.00653726
     atom   19 type  1   force =    -0.00818516    0.01248509    0.00818516
     atom   20 type  1   force =     0.00927147    0.00887309   -0.00927146
     atom   21 type  1   force =    -0.01266966    0.00653725    0.00653727
     atom   22 type  1   force =    -0.00464989   -0.00123561   -0.00123560
     atom   23 type  1   force =    -0.00285903    0.00397420    0.00147098
     atom   24 type  1   force =     0.00285901   -0.00147102   -0.00397421
     atom   25 type  1   force =    -0.00653727    0.00653725    0.01266967
     atom   26 type  1   force =     0.00123562   -0.00123562    0.00464992
     atom   27 type  1   force =    -0.00043137    0.00043137    0.00043136
     atom   28 type  1   force =     0.00554555   -0.00554554   -0.00554553
     atom   29 type  1   force =    -0.00479291    0.00479291   -0.00142967
     atom   30 type  1   force =     0.00219373   -0.00219374    0.00202570
     atom   31 type  1   force =    -0.00147100    0.00397421    0.00285902
     atom   32 type  1   force =     0.00397421   -0.00147101   -0.00285903
     atom   33 type  1   force =     0.00142966    0.00479290    0.00479291
     atom   34 type  1   force =    -0.00202569   -0.00219375   -0.00219374
     atom   35 type  1   force =    -0.00219376   -0.00202569    0.00219375
     atom   36 type  1   force =     0.00479290    0.00142969   -0.00479290
     atom   37 type  1   force =    -0.00927149   -0.00887309    0.00927146
     atom   38 type  1   force =     0.00818520   -0.01248507   -0.00818516
     atom   39 type  1   force =    -0.00285903    0.00147099    0.00397421
     atom   40 type  1   force =     0.00285902   -0.00397421   -0.00147100
     atom   41 type  1   force =     0.00464991    0.00123561    0.00123560
     atom   42 type  1   force =     0.01266967   -0.00653724   -0.00653726
     atom   43 type  1   force =    -0.00397422    0.00147100    0.00285902
     atom   44 type  1   force =     0.00147101   -0.00397421   -0.00285902
     atom   45 type  1   force =    -0.00479291   -0.00142968    0.00479291
     atom   46 type  1   force =     0.00219375    0.00202569   -0.00219374
     atom   47 type  1   force =     0.00202570    0.00219375    0.00219375
     atom   48 type  1   force =    -0.00142968   -0.00479289   -0.00479291
     atom   49 type  1   force =    -0.00123564    0.00123561   -0.00464992
     atom   50 type  1   force =     0.00653728   -0.00653724   -0.01266967
     atom   51 type  1   force =    -0.00219374    0.00219375   -0.00202570
     atom   52 type  1   force =     0.00479291   -0.00479291    0.00142968
     atom   53 type  1   force =    -0.00554553    0.00554552    0.00554552
     atom   54 type  1   force =     0.00043137   -0.00043137   -0.00043137

     Total force =     0.077057     Total SCF correction =     0.000003


     Computing stress (Cartesian axis) and pressure

          total   stress  (Ry/bohr**3)                   (kbar)     P=   -6.78
  -0.00004606   0.00005019   0.00005019         -6.78      7.38      7.38
   0.00005019  -0.00004606  -0.00005019          7.38     -6.78     -7.38
   0.00005019  -0.00005019  -0.00004606          7.38     -7.38     -6.78


     number of scf cycles    =   4
     number of bfgs steps    =   3

     enthalpy old            =    -630.3932786199 Ry
     enthalpy new            =    -630.4034935447 Ry

     CASE: enthalpy_new < enthalpy_old

     new trust radius        =       0.0239023230 bohr
     new conv_thr            =            1.3E-11 Ry

     new unit-cell volume =   2025.56840 a.u.^3 (   300.15827 Ang^3 )
     density =      3.61024 g/cm^3

CELL_PARAMETERS (alat= 20.11027653)
  -0.501842796   0.004924879   0.501842796
  -0.004924880   0.501842795   0.501842795
  -0.501842797   0.501842797   0.004924878

ATOMIC_POSITIONS (crystal)
N       -0.016423356  -0.016423356  -0.016423359
N        0.099756689   0.099756689   0.099756691
C        0.004842688   0.004842688   0.332450110
C        0.083372997   0.083372997   0.418444778
C       -0.000039663  -0.000039663   0.664888555
C        0.078490645   0.078490645   0.750883224
C        0.004842689   0.332450106   0.004842690
C        0.083372995   0.418444777   0.083372997
C       -0.000367235   0.333950168   0.333950167
C        0.083146705   0.416692414   0.416692412
C       -0.001013362   0.331557365   0.669683283
C        0.084346694   0.413650049   0.751775968
C       -0.000039660   0.664888554  -0.000039664
C        0.078490646   0.750883224   0.078490646
C       -0.001013362   0.669683285   0.331557366
C        0.084346695   0.751775968   0.413650051
C        0.000186630   0.666640919   0.666640922
C        0.083700568   0.749383166   0.749383166
C        0.332450108   0.004842688   0.004842689
C        0.418444778   0.083372995   0.083372997
C        0.333950166  -0.000367234   0.333950168
C        0.416692412   0.083146706   0.416692412
C        0.331557364  -0.001013361   0.669683284
C        0.413650049   0.084346694   0.751775968
C        0.333950166   0.333950167  -0.000367235
C        0.416692412   0.416692412   0.083146705
C        0.333203163   0.333203165   0.333203164
C        0.416359624   0.416359623   0.416359622
C        0.333276362   0.333276362   0.666616965
C        0.416801522   0.416801520   0.749690722
C        0.331557365   0.669683284  -0.001013362
C        0.413650050   0.751775968   0.084346694
C        0.333276363   0.666616965   0.333276363
C        0.416801523   0.749690722   0.416801521
C        0.333642612   0.666531810   0.666531811
C        0.416716369   0.750056971   0.750056971
C        0.664888556  -0.000039662  -0.000039663
C        0.750883225   0.078490645   0.078490645
C        0.669683284  -0.001013361   0.331557365
C        0.751775969   0.084346694   0.413650050
C        0.666640920   0.000186630   0.666640920
C        0.749383167   0.083700567   0.749383166
C        0.669683285   0.331557365  -0.001013362
C        0.751775968   0.413650050   0.084346694
C        0.666616965   0.333276363   0.333276363
C        0.749690722   0.416801523   0.416801521
C        0.666531810   0.333642612   0.666531811
C        0.750056970   0.416716369   0.750056971
C        0.666640922   0.666640921   0.000186628
C        0.749383166   0.749383167   0.083700567
C        0.666531811   0.666531813   0.333642612
C        0.750056970   0.750056971   0.416716369
C        0.666973710   0.666973711   0.666973710
C        0.750130170   0.750130170   0.750130169



     Writing output data file n2.save
     NEW-OLD atomic charge density approx. for the potential
     extrapolated charge  217.45956, renormalised to  218.00000

     total cpu time spent up to now is       46.0 secs

     per-process dynamical memory:    46.6 Mb

     Self-consistent Calculation

     iteration #  1     ecut=    50.00 Ry     beta=0.70
     CG style diagonalization
     ethr =  1.00E-06,  avg # of iterations = 13.2

     total cpu time spent up to now is       47.9 secs

     total energy              =    -630.40597971 Ry
     Harris-Foulkes estimate   =    -630.06120584 Ry
     estimated scf accuracy    <       0.00101144 Ry

     iteration #  2     ecut=    50.00 Ry     beta=0.70
     CG style diagonalization
     ethr =  4.64E-07,  avg # of iterations =  4.4

     total cpu time spent up to now is       48.5 secs

     total energy              =    -630.40620573 Ry
     Harris-Foulkes estimate   =    -630.40626881 Ry
     estimated scf accuracy    <       0.00020501 Ry

     iteration #  3     ecut=    50.00 Ry     beta=0.70
     CG style diagonalization
     ethr =  9.40E-08,  avg # of iterations =  3.7

     total cpu time spent up to now is       49.0 secs

     total energy              =    -630.40620658 Ry
     Harris-Foulkes estimate   =    -630.40622128 Ry
     estimated scf accuracy    <       0.00003365 Ry

     iteration #  4     ecut=    50.00 Ry     beta=0.70
     CG style diagonalization
     ethr =  1.54E-08,  avg # of iterations =  4.6

     total cpu time spent up to now is       49.6 secs

     total energy              =    -630.40621465 Ry
     Harris-Foulkes estimate   =    -630.40621587 Ry
     estimated scf accuracy    <       0.00000294 Ry

     iteration #  5     ecut=    50.00 Ry     beta=0.70
     CG style diagonalization
     ethr =  1.35E-09,  avg # of iterations =  4.9

     total cpu time spent up to now is       50.3 secs

     total energy              =    -630.40621533 Ry
     Harris-Foulkes estimate   =    -630.40621560 Ry
     estimated scf accuracy    <       0.00000075 Ry

     iteration #  6     ecut=    50.00 Ry     beta=0.70
     CG style diagonalization
     ethr =  3.45E-10,  avg # of iterations =  4.1

     total cpu time spent up to now is       50.9 secs

     total energy              =    -630.40621540 Ry
     Harris-Foulkes estimate   =    -630.40621544 Ry
     estimated scf accuracy    <       0.00000012 Ry

     iteration #  7     ecut=    50.00 Ry     beta=0.70
     CG style diagonalization
     ethr =  5.33E-11,  avg # of iterations =  4.4

     total cpu time spent up to now is       51.5 secs

     total energy              =    -630.40621541 Ry
     Harris-Foulkes estimate   =    -630.40621542 Ry
     estimated scf accuracy    <       0.00000003 Ry

     iteration #  8     ecut=    50.00 Ry     beta=0.70
     CG style diagonalization
     c_bands:  2 eigenvalues not converged
     ethr =  1.19E-11,  avg # of iterations =  5.1

     total cpu time spent up to now is       52.2 secs

     total energy              =    -630.40621541 Ry
     Harris-Foulkes estimate   =    -630.40621541 Ry
     estimated scf accuracy    <          2.3E-09 Ry

     iteration #  9     ecut=    50.00 Ry     beta=0.70
     CG style diagonalization
     ethr =  1.04E-12,  avg # of iterations =  4.7

     total cpu time spent up to now is       52.9 secs

     total energy              =    -630.40621541 Ry
     Harris-Foulkes estimate   =    -630.40621541 Ry
     estimated scf accuracy    <          8.5E-10 Ry

     iteration # 10     ecut=    50.00 Ry     beta=0.70
     CG style diagonalization
     ethr =  3.88E-13,  avg # of iterations =  3.9

     total cpu time spent up to now is       53.4 secs

     total energy              =    -630.40621541 Ry
     Harris-Foulkes estimate   =    -630.40621541 Ry
     estimated scf accuracy    <          3.2E-11 Ry

     iteration # 11     ecut=    50.00 Ry     beta=0.70
     CG style diagonalization
     c_bands:  1 eigenvalues not converged
     ethr =  1.00E-13,  avg # of iterations =  3.7

     total cpu time spent up to now is       54.0 secs

     End of self-consistent calculation

          k = 0.0000 0.0000 0.0000 ( 12051 PWs)   bands (ev):

    -8.3639  -6.5731  -6.1202  -4.9701  -4.9701  -4.9544  -4.9544  -4.9457
    -4.9219  -4.4077  -4.1166  -4.0237  -4.0237  -3.8956  -3.8956  -1.7543
    -1.0842  -0.7210  -0.7210  -0.6061  -0.6061  -0.4923  -0.4510  -0.4510
    -0.4307  -0.4307  -0.3217   1.5648   2.3368   2.3368   2.3464   2.3464
     2.6115   2.6609   2.6715   2.7393   2.7393   2.7399   2.7399   3.6647
     3.6647   3.8414   3.9037   4.0535   4.0535   4.0800   4.1517   4.1517
     4.1603   4.1664   4.1930   4.2342   4.2583   4.2583   4.2854   4.2854
     4.3246   4.3246   4.6035   6.1677   6.2020   6.2020   6.5433   6.5433
     6.5960   7.7264   7.7264   8.0012   8.0012   8.0795   8.2372   8.2372
     8.2837   8.2837   8.4488   8.4767   8.4932   8.7509   8.7509   8.8342
     8.8342   8.8617   8.9377   8.9377   8.9814   8.9814   9.0614   9.1570
     9.2853  10.7478  10.7478  11.2105  11.2398  11.2398  11.2667  11.2667
    11.3277  11.3277  11.4150  11.4150  11.4212  11.4802  11.4802  11.4896
    12.1970  13.6639  13.6639  14.0342  14.3494  17.6234  17.8260  17.8260
    18.1163  18.1163  18.5383  19.2225  19.3144  19.3144  19.8299  19.9742
    19.9742  20.0042  20.0591  20.2762  20.2762  20.3132  20.3132  20.3654
    20.3654  20.7882  21.2517  21.5171  21.5171  21.6108  21.6108  21.6119
    21.8717  21.8721  21.8721  22.0179  22.0179  22.0286  22.0286  22.0564
    22.0691  22.1640  22.1640  22.2312  22.2312  22.2391

     highest occupied, lowest unoccupied level (ev):    14.3494   17.6234

!    total energy              =    -630.40621541 Ry
     Harris-Foulkes estimate   =    -630.40621541 Ry
     estimated scf accuracy    <          1.1E-11 Ry

     The total energy is the sum of the following terms:

     one-electron contribution =     214.21787503 Ry
     hartree contribution      =      58.66648010 Ry
     xc contribution           =    -196.79683669 Ry
     ewald contribution        =    -706.49373386 Ry

     convergence has been achieved in  11 iterations

     Forces acting on atoms (cartesian axes, Ry/au):

     atom    1 type  2   force =     0.00643423   -0.00643425   -0.00643426
     atom    2 type  2   force =    -0.00643425    0.00643425    0.00643425
     atom    3 type  1   force =     0.00301094   -0.00301097    0.00649290
     atom    4 type  1   force =    -0.00670561    0.00670561    0.00309160
     atom    5 type  1   force =     0.00670562   -0.00670561   -0.00309161
     atom    6 type  1   force =    -0.00301094    0.00301097   -0.00649289
     atom    7 type  1   force =    -0.00649287   -0.00301094   -0.00301093
     atom    8 type  1   force =    -0.00309162    0.00670560    0.00670563
     atom    9 type  1   force =    -0.00196664    0.00149538    0.00196663
     atom   10 type  1   force =    -0.00148362    0.00527971    0.00148358
     atom   11 type  1   force =    -0.00162598   -0.00121897   -0.00153301
     atom   12 type  1   force =    -0.00153301    0.00121898   -0.00162601
     atom   13 type  1   force =     0.00309163   -0.00670559   -0.00670563
     atom   14 type  1   force =     0.00649290    0.00301095    0.00301095
     atom   15 type  1   force =     0.00153300   -0.00121899    0.00162601
     atom   16 type  1   force =     0.00162599    0.00121897    0.00153301
     atom   17 type  1   force =     0.00148363   -0.00527970   -0.00148359
     atom   18 type  1   force =     0.00196662   -0.00149539   -0.00196662
     atom   19 type  1   force =     0.00301094    0.00649289   -0.00301096
     atom   20 type  1   force =    -0.00670560    0.00309161    0.00670561
     atom   21 type  1   force =    -0.00149540    0.00196664    0.00196665
     atom   22 type  1   force =    -0.00527970    0.00148363    0.00148363
     atom   23 type  1   force =     0.00121894    0.00162602   -0.00153298
     atom   24 type  1   force =    -0.00121894    0.00153300   -0.00162603
     atom   25 type  1   force =    -0.00196664    0.00196663    0.00149537
     atom   26 type  1   force =    -0.00148362    0.00148359    0.00527972
     atom   27 type  1   force =    -0.00083562    0.00083563    0.00083564
     atom   28 type  1   force =     0.00015820   -0.00015820   -0.00015822
     atom   29 type  1   force =     0.00066905   -0.00066905   -0.00022904
     atom   30 type  1   force =    -0.00074937    0.00074940    0.00178882
     atom   31 type  1   force =     0.00153298    0.00162601   -0.00121897
     atom   32 type  1   force =     0.00162598    0.00153302    0.00121897
     atom   33 type  1   force =     0.00022901   -0.00066904   -0.00066903
     atom   34 type  1   force =    -0.00178878    0.00074935    0.00074933
     atom   35 type  1   force =     0.00074939   -0.00178882   -0.00074939
     atom   36 type  1   force =    -0.00066904    0.00022903    0.00066903
     atom   37 type  1   force =     0.00670562   -0.00309161   -0.00670562
     atom   38 type  1   force =    -0.00301095   -0.00649289    0.00301097
     atom   39 type  1   force =     0.00121895   -0.00153299    0.00162603
     atom   40 type  1   force =    -0.00121894   -0.00162602    0.00153299
     atom   41 type  1   force =     0.00527968   -0.00148364   -0.00148364
     atom   42 type  1   force =     0.00149541   -0.00196663   -0.00196664
     atom   43 type  1   force =    -0.00162598   -0.00153300   -0.00121898
     atom   44 type  1   force =    -0.00153301   -0.00162601    0.00121897
     atom   45 type  1   force =     0.00066905   -0.00022905   -0.00066904
     atom   46 type  1   force =    -0.00074938    0.00178883    0.00074939
     atom   47 type  1   force =     0.00178877   -0.00074935   -0.00074934
     atom   48 type  1   force =    -0.00022900    0.00066903    0.00066903
     atom   49 type  1   force =     0.00148364   -0.00148360   -0.00527972
     atom   50 type  1   force =     0.00196661   -0.00196663   -0.00149537
     atom   51 type  1   force =     0.00074938   -0.00074940   -0.00178881
     atom   52 type  1   force =    -0.00066905    0.00066904    0.00022903
     atom   53 type  1   force =    -0.00015822    0.00015822    0.00015822
     atom   54 type  1   force =     0.00083562   -0.00083564   -0.00083564

     Total force =     0.039677     Total SCF correction =     0.000006


     Computing stress (Cartesian axis) and pressure

          total   stress  (Ry/bohr**3)                   (kbar)     P=    5.62
   0.00003821   0.00002596   0.00002595          5.62      3.82      3.82
   0.00002596   0.00003821  -0.00002595          3.82      5.62     -3.82
   0.00002595  -0.00002595   0.00003821          3.82     -3.82      5.62


     number of scf cycles    =   5
     number of bfgs steps    =   4

     enthalpy old            =    -630.4034935447 Ry
     enthalpy new            =    -630.4062154132 Ry

     CASE: enthalpy_new < enthalpy_old

     new trust radius        =       0.0111376672 bohr
     new conv_thr            =            6.7E-12 Ry

     new unit-cell volume =   2029.62094 a.u.^3 (   300.75879 Ang^3 )
     density =      3.60303 g/cm^3

CELL_PARAMETERS (alat= 20.11027653)
  -0.501994741   0.004566560   0.501994741
  -0.004566559   0.501994742   0.501994742
  -0.501994741   0.501994741   0.004566560

ATOMIC_POSITIONS (crystal)
N       -0.016740380  -0.016740381  -0.016740381
N        0.100073712   0.100073713   0.100073714
C        0.005346187   0.005346186   0.332036600
C        0.083700276   0.083700276   0.418671130
C       -0.000366942  -0.000366942   0.664662203
[...]
         6           C   tau(   6) = (  -0.4164320   0.4164320   0.0814006  )
         7           C   tau(   7) = (  -0.0072053   0.1694663   0.1694663  )
         8           C   tau(   8) = (  -0.0862124   0.2527946   0.2527946  )
         9           C   tau(   9) = (  -0.1694881   0.3358371   0.1694881  )
        10           C   tau(  10) = (  -0.2531937   0.4193356   0.2531937  )
        11           C   tau(  11) = (  -0.3374162   0.5024908   0.1686139  )
        12           C   tau(  12) = (  -0.4218634   0.5852790   0.2530611  )
        13           C   tau(  13) = (  -0.0023935   0.3331037   0.3331037  )
        14           C   tau(  14) = (  -0.0814006   0.4164320   0.4164320  )
        15           C   tau(  15) = (  -0.1686139   0.5024908   0.3374162  )
        16           C   tau(  16) = (  -0.2530611   0.5852790   0.4218634  )
        17           C   tau(  17) = (  -0.3372836   0.6684342   0.3372836  )
        18           C   tau(  18) = (  -0.4209892   0.7519327   0.4209892  )
        19           C   tau(  19) = (  -0.1694663   0.0072053   0.1694663  )
        20           C   tau(  20) = (  -0.2527946   0.0862124   0.2527946  )
        21           C   tau(  21) = (  -0.3358371   0.1694881   0.1694881  )
        22           C   tau(  22) = (  -0.4193356   0.2531937   0.2531937  )
        23           C   tau(  23) = (  -0.5024908   0.3374162   0.1686139  )
        24           C   tau(  24) = (  -0.5852790   0.4218634   0.2530611  )
        25           C   tau(  25) = (  -0.1694881   0.1694881   0.3358371  )
        26           C   tau(  26) = (  -0.2531937   0.2531937   0.4193356  )
        27           C   tau(  27) = (  -0.3363819   0.3363819   0.3363819  )
        28           C   tau(  28) = (  -0.4200292   0.4200292   0.4200292  )
        29           C   tau(  29) = (  -0.5034530   0.5034530   0.3375058  )
        30           C   tau(  30) = (  -0.5874964   0.5874964   0.4219127  )
        31           C   tau(  31) = (  -0.1686139   0.3374162   0.5024908  )
        32           C   tau(  32) = (  -0.2530611   0.4218634   0.5852790  )
        33           C   tau(  33) = (  -0.3375058   0.5034530   0.5034530  )
        34           C   tau(  34) = (  -0.4219127   0.5874964   0.5874964  )
        35           C   tau(  35) = (  -0.5048524   0.6704361   0.5048524  )
        36           C   tau(  36) = (  -0.5888958   0.7548429   0.5888958  )
        37           C   tau(  37) = (  -0.3331037   0.0023935   0.3331037  )
        38           C   tau(  38) = (  -0.4164320   0.0814006   0.4164320  )
        39           C   tau(  39) = (  -0.5024908   0.1686139   0.3374162  )
        40           C   tau(  40) = (  -0.5852790   0.2530611   0.4218634  )
        41           C   tau(  41) = (  -0.6684342   0.3372836   0.3372836  )
        42           C   tau(  42) = (  -0.7519327   0.4209892   0.4209892  )
        43           C   tau(  43) = (  -0.3374162   0.1686139   0.5024908  )
        44           C   tau(  44) = (  -0.4218634   0.2530611   0.5852790  )
        45           C   tau(  45) = (  -0.5034530   0.3375058   0.5034530  )
        46           C   tau(  46) = (  -0.5874964   0.4219127   0.5874964  )
        47           C   tau(  47) = (  -0.6704361   0.5048524   0.5048524  )
        48           C   tau(  48) = (  -0.7548429   0.5888958   0.5888958  )
        49           C   tau(  49) = (  -0.3372836   0.3372836   0.6684342  )
        50           C   tau(  50) = (  -0.4209892   0.4209892   0.7519327  )
        51           C   tau(  51) = (  -0.5048524   0.5048524   0.6704361  )
        52           C   tau(  52) = (  -0.5888958   0.5888958   0.7548429  )
        53           C   tau(  53) = (  -0.6723196   0.6723196   0.6723196  )
        54           C   tau(  54) = (  -0.7559669   0.7559669   0.7559669  )

     number of k points=     1
                       cart. coord. in units 2pi/alat
        k(    1) = (   0.0000000   0.0000000   0.0000000), wk =   2.0000000

     Dense  grid:    96827 G-vectors     FFT dimensions: (  72,  72,  72)

     Estimated max dynamical RAM per process >       3.32MB

     Estimated total allocated dynamical RAM >     265.94MB

     Initial potential from superposition of free atoms

     starting charge  217.63256, renormalised to  218.00000
     Starting wfc are random

     Writing output data file n2.save

     total cpu time spent up to now is       95.5 secs

     per-process dynamical memory:    45.1 Mb

     Self-consistent Calculation

     iteration #  1     ecut=    50.00 Ry     beta=0.70
     CG style diagonalization
     c_bands:  2 eigenvalues not converged
     ethr =  1.00E-06,  avg # of iterations = 41.3

     total cpu time spent up to now is      101.2 secs

     total energy              =    -630.56680743 Ry
     Harris-Foulkes estimate   =    -631.75801184 Ry
     estimated scf accuracy    <       3.63061889 Ry

     iteration #  2     ecut=    50.00 Ry     beta=0.70
     CG style diagonalization
     ethr =  1.67E-03,  avg # of iterations =  3.0

     total cpu time spent up to now is      101.6 secs

     total energy              =    -630.32668804 Ry
     Harris-Foulkes estimate   =    -630.65851094 Ry
     estimated scf accuracy    <       0.79351671 Ry

     iteration #  3     ecut=    50.00 Ry     beta=0.70
     CG style diagonalization
     ethr =  3.64E-04,  avg # of iterations =  3.6

     total cpu time spent up to now is      102.1 secs

     total energy              =    -630.41187318 Ry
     Harris-Foulkes estimate   =    -630.41147398 Ry
     estimated scf accuracy    <       0.01363616 Ry

     iteration #  4     ecut=    50.00 Ry     beta=0.70
     CG style diagonalization
     c_bands:  2 eigenvalues not converged
     ethr =  6.26E-06,  avg # of iterations =  5.5

     total cpu time spent up to now is      102.9 secs

     total energy              =    -630.41867586 Ry
     Harris-Foulkes estimate   =    -630.41992629 Ry
     estimated scf accuracy    <       0.00285902 Ry

     iteration #  5     ecut=    50.00 Ry     beta=0.70
     CG style diagonalization
     c_bands:  1 eigenvalues not converged
     ethr =  1.31E-06,  avg # of iterations =  4.4

     total cpu time spent up to now is      103.5 secs

     total energy              =    -630.41917756 Ry
     Harris-Foulkes estimate   =    -630.41921889 Ry
     estimated scf accuracy    <       0.00019969 Ry

     iteration #  6     ecut=    50.00 Ry     beta=0.70
     CG style diagonalization
     c_bands:  4 eigenvalues not converged
     ethr =  9.16E-08,  avg # of iterations =  5.9

     total cpu time spent up to now is      104.3 secs

     total energy              =    -630.41924105 Ry
     Harris-Foulkes estimate   =    -630.41924574 Ry
     estimated scf accuracy    <       0.00002264 Ry

     iteration #  7     ecut=    50.00 Ry     beta=0.70
     CG style diagonalization
     c_bands:  3 eigenvalues not converged
     ethr =  1.04E-08,  avg # of iterations =  4.9

     total cpu time spent up to now is      104.9 secs

     total energy              =    -630.41924333 Ry
     Harris-Foulkes estimate   =    -630.41924407 Ry
     estimated scf accuracy    <       0.00000588 Ry

     iteration #  8     ecut=    50.00 Ry     beta=0.70
     CG style diagonalization
     c_bands:  3 eigenvalues not converged
     ethr =  2.70E-09,  avg # of iterations =  5.3

     total cpu time spent up to now is      105.7 secs

     total energy              =    -630.41924456 Ry
     Harris-Foulkes estimate   =    -630.41924496 Ry
     estimated scf accuracy    <       0.00000095 Ry

     iteration #  9     ecut=    50.00 Ry     beta=0.70
     CG style diagonalization
     c_bands:  4 eigenvalues not converged
     ethr =  4.34E-10,  avg # of iterations =  4.9

     total cpu time spent up to now is      106.3 secs

     total energy              =    -630.41924473 Ry
     Harris-Foulkes estimate   =    -630.41924475 Ry
     estimated scf accuracy    <       0.00000007 Ry

     iteration # 10     ecut=    50.00 Ry     beta=0.70
     CG style diagonalization
     c_bands:  3 eigenvalues not converged
     ethr =  3.12E-11,  avg # of iterations =  6.5

     total cpu time spent up to now is      107.2 secs

     total energy              =    -630.41924476 Ry
     Harris-Foulkes estimate   =    -630.41924477 Ry
     estimated scf accuracy    <       0.00000002 Ry

     iteration # 11     ecut=    50.00 Ry     beta=0.70
     CG style diagonalization
     c_bands:  3 eigenvalues not converged
     ethr =  7.41E-12,  avg # of iterations =  4.7

     total cpu time spent up to now is      107.9 secs

     total energy              =    -630.41924476 Ry
     Harris-Foulkes estimate   =    -630.41924476 Ry
     estimated scf accuracy    <          2.0E-09 Ry

     iteration # 12     ecut=    50.00 Ry     beta=0.70
     CG style diagonalization
     c_bands:  3 eigenvalues not converged
     ethr =  9.12E-13,  avg # of iterations =  5.6

     total cpu time spent up to now is      108.7 secs

     total energy              =    -630.41924476 Ry
     Harris-Foulkes estimate   =    -630.41924476 Ry
     estimated scf accuracy    <          1.7E-09 Ry

     iteration # 13     ecut=    50.00 Ry     beta=0.70
     CG style diagonalization
     c_bands:  3 eigenvalues not converged
     ethr =  7.88E-13,  avg # of iterations =  3.7

     total cpu time spent up to now is      109.2 secs

     total energy              =    -630.41924476 Ry
     Harris-Foulkes estimate   =    -630.41924476 Ry
     estimated scf accuracy    <          9.1E-11 Ry

     iteration # 14     ecut=    50.00 Ry     beta=0.70
     CG style diagonalization
     c_bands:  3 eigenvalues not converged
     ethr =  1.00E-13,  avg # of iterations =  5.7

     total cpu time spent up to now is      110.0 secs

     total energy              =    -630.41924476 Ry
     Harris-Foulkes estimate   =    -630.41924476 Ry
     estimated scf accuracy    <          5.6E-11 Ry

     iteration # 15     ecut=    50.00 Ry     beta=0.70
     CG style diagonalization
     c_bands:  3 eigenvalues not converged
     ethr =  1.00E-13,  avg # of iterations =  3.4

     total cpu time spent up to now is      110.5 secs

     total energy              =    -630.41924476 Ry
     Harris-Foulkes estimate   =    -630.41924476 Ry
     estimated scf accuracy    <          9.1E-12 Ry

     iteration # 16     ecut=    50.00 Ry     beta=0.70
     CG style diagonalization
     c_bands:  3 eigenvalues not converged
     ethr =  1.00E-13,  avg # of iterations =  3.4

     total cpu time spent up to now is      110.9 secs

     total energy              =    -630.41924476 Ry
     Harris-Foulkes estimate   =    -630.41924476 Ry
     estimated scf accuracy    <          9.2E-12 Ry

     iteration # 17     ecut=    50.00 Ry     beta=0.70
     CG style diagonalization
     c_bands:  3 eigenvalues not converged
     ethr =  1.00E-13,  avg # of iterations =  3.4

     total cpu time spent up to now is      111.4 secs

     End of self-consistent calculation

          k = 0.0000 0.0000 0.0000 ( 12099 PWs)   bands (ev):

    -8.3837  -6.6336  -6.1592  -4.9771  -4.9771  -4.9670  -4.9670  -4.9530
    -4.9264  -4.4188  -4.1283  -4.0349  -4.0349  -3.9011  -3.9011  -1.7719
    -1.1141  -0.7302  -0.7302  -0.6211  -0.6211  -0.4899  -0.4722  -0.4722
    -0.4446  -0.4446  -0.3381   1.5533   2.2940   2.2940   2.3201   2.3201
     2.5889   2.6430   2.6546   2.7252   2.7252   2.7277   2.7277   3.6423
     3.6423   3.8207   3.9097   4.0348   4.0348   4.0681   4.1467   4.1467
     4.1515   4.1569   4.1728   4.2237   4.2463   4.2463   4.2728   4.2728
     4.3119   4.3119   4.6034   6.1564   6.1807   6.1807   6.5256   6.5256
     6.5695   7.6716   7.6716   7.9942   7.9942   8.0733   8.2315   8.2315
     8.2572   8.2572   8.4297   8.4685   8.4692   8.7281   8.7281   8.8194
     8.8194   8.8465   8.9176   8.9176   8.9766   8.9766   9.0656   9.1155
     9.2839  10.7010  10.7010  11.1796  11.2184  11.2184  11.2712  11.2712
    11.3030  11.3030  11.4074  11.4074  11.4122  11.4493  11.4493  11.4588
    12.2003  13.6349  13.6349  14.0452  14.2639  17.6148  17.7984  17.7984
    18.0885  18.0885  18.5118  19.2161  19.2798  19.2798  19.7929  19.9525
    19.9525  20.0006  20.0434  20.2355  20.2355  20.2765  20.2765  20.3377
    20.3377  20.7732  21.2240  21.4984  21.4984  21.5690  21.5690  21.6260
    21.8175  21.8175  21.8232  21.9772  21.9772  22.0041  22.0041  22.0270
    22.0470  22.1329  22.1329  22.2160  22.2160  22.2367

     highest occupied, lowest unoccupied level (ev):    14.2639   17.6148

!    total energy              =    -630.41924476 Ry
     Harris-Foulkes estimate   =    -630.41924476 Ry
     estimated scf accuracy    <          4.1E-13 Ry

     The total energy is the sum of the following terms:

     one-electron contribution =     213.61255534 Ry
     hartree contribution      =      58.80084152 Ry
     xc contribution           =    -196.75402913 Ry
     ewald contribution        =    -706.07861250 Ry

     convergence has been achieved in  17 iterations

     Forces acting on atoms (cartesian axes, Ry/au):

     atom    1 type  2   force =    -0.00012095    0.00012095    0.00012096
     atom    2 type  2   force =     0.00012094   -0.00012094   -0.00012096
     atom    3 type  1   force =    -0.00068597    0.00068598   -0.00004912
     atom    4 type  1   force =    -0.00025361    0.00025363    0.00000490
     atom    5 type  1   force =     0.00025363   -0.00025361   -0.00000490
     atom    6 type  1   force =     0.00068597   -0.00068598    0.00004912
     atom    7 type  1   force =     0.00004913    0.00068597    0.00068597
     atom    8 type  1   force =    -0.00000490    0.00025362    0.00025361
     atom    9 type  1   force =    -0.00023030    0.00013524    0.00023028
     atom   10 type  1   force =    -0.00007187   -0.00025241    0.00007185
     atom   11 type  1   force =     0.00002163   -0.00020606   -0.00032151
     atom   12 type  1   force =    -0.00032152    0.00020605    0.00002163
     atom   13 type  1   force =     0.00000491   -0.00025362   -0.00025361
     atom   14 type  1   force =    -0.00004913   -0.00068598   -0.00068598
     atom   15 type  1   force =     0.00032152   -0.00020605   -0.00002163
     atom   16 type  1   force =    -0.00002163    0.00020606    0.00032151
     atom   17 type  1   force =     0.00007188    0.00025240   -0.00007185
     atom   18 type  1   force =     0.00023029   -0.00013523   -0.00023029
     atom   19 type  1   force =    -0.00068598   -0.00004912    0.00068598
     atom   20 type  1   force =    -0.00025362    0.00000489    0.00025363
     atom   21 type  1   force =    -0.00013523    0.00023030    0.00023029
     atom   22 type  1   force =     0.00025240    0.00007187    0.00007186
     atom   23 type  1   force =     0.00020607   -0.00002164   -0.00032151
     atom   24 type  1   force =    -0.00020606    0.00032151    0.00002164
     atom   25 type  1   force =    -0.00023030    0.00023028    0.00013524
     atom   26 type  1   force =    -0.00007185    0.00007185   -0.00025240
     atom   27 type  1   force =    -0.00019872    0.00019872    0.00019872
     atom   28 type  1   force =    -0.00052449    0.00052448    0.00052448
     atom   29 type  1   force =    -0.00001547    0.00001548    0.00015157
     atom   30 type  1   force =    -0.00030911    0.00030911    0.00005520
     atom   31 type  1   force =     0.00032151   -0.00002163   -0.00020605
     atom   32 type  1   force =    -0.00002163    0.00032151    0.00020606
     atom   33 type  1   force =    -0.00015155    0.00001548    0.00001548
     atom   34 type  1   force =    -0.00005523    0.00030911    0.00030910
     atom   35 type  1   force =     0.00030911   -0.00005521   -0.00030910
     atom   36 type  1   force =     0.00001548   -0.00015156   -0.00001548
     atom   37 type  1   force =     0.00025363   -0.00000489   -0.00025362
     atom   38 type  1   force =     0.00068598    0.00004912   -0.00068596
     atom   39 type  1   force =     0.00020607   -0.00032152   -0.00002164
     atom   40 type  1   force =    -0.00020606    0.00002164    0.00032152
     atom   41 type  1   force =    -0.00025241   -0.00007186   -0.00007185
     atom   42 type  1   force =     0.00013524   -0.00023030   -0.00023029
     atom   43 type  1   force =     0.00002163   -0.00032152   -0.00020605
     atom   44 type  1   force =    -0.00032152    0.00002163    0.00020605
     atom   45 type  1   force =    -0.00001548    0.00015155    0.00001548
     atom   46 type  1   force =    -0.00030911    0.00005521    0.00030910
     atom   47 type  1   force =     0.00005523   -0.00030911   -0.00030911
     atom   48 type  1   force =     0.00015155   -0.00001547   -0.00001547
     atom   49 type  1   force =     0.00007185   -0.00007186    0.00025240
     atom   50 type  1   force =     0.00023029   -0.00023030   -0.00013524
     atom   51 type  1   force =     0.00030911   -0.00030910   -0.00005521
     atom   52 type  1   force =     0.00001548   -0.00001548   -0.00015157
     atom   53 type  1   force =     0.00052448   -0.00052449   -0.00052448
     atom   54 type  1   force =     0.00019872   -0.00019872   -0.00019872

     Total force =     0.003558     Total SCF correction =     0.000001


     Computing stress (Cartesian axis) and pressure

          total   stress  (Ry/bohr**3)                   (kbar)     P=    2.78
   0.00001890  -0.00002230  -0.00002230          2.78     -3.28     -3.28
  -0.00002230   0.00001890   0.00002230         -3.28      2.78      3.28
  -0.00002230   0.00002230   0.00001890         -3.28      3.28      2.78


     Writing output data file n2.save
 
     init_run     :      0.58s CPU      1.08s WALL (       2 calls)
     electrons    :    104.20s CPU    107.12s WALL (      11 calls)
     update_pot   :      0.56s CPU      0.61s WALL (       9 calls)
     forces       :      0.61s CPU      0.66s WALL (      11 calls)
     stress       :      0.81s CPU      0.84s WALL (      11 calls)

     Called by init_run:
     wfcinit      :      0.24s CPU      0.39s WALL (       2 calls)
     potinit      :      0.08s CPU      0.10s WALL (       2 calls)

     Called by electrons:
     c_bands      :     98.42s CPU    101.04s WALL (     144 calls)
     sum_band     :      3.77s CPU      3.86s WALL (     144 calls)
     v_of_rho     :      0.70s CPU      0.71s WALL (     152 calls)
     mix_rho      :      1.09s CPU      1.12s WALL (     144 calls)

     Called by c_bands:
     init_us_2    :      0.09s CPU      0.11s WALL (     290 calls)
     ccgdiagg     :     85.95s CPU     88.24s WALL (     158 calls)
     wfcrot       :     12.52s CPU     12.93s WALL (     146 calls)

     Called by sum_band:

     Called by *cgdiagg:
     h_psi        :     64.46s CPU     66.13s WALL (   91678 calls)
     cdiaghg      :      1.74s CPU      1.93s WALL (     146 calls)

     Called by h_psi:
     h_psi:pot    :     64.18s CPU     65.83s WALL (   91678 calls)
     h_psi:calbec :     16.77s CPU     17.20s WALL (   91678 calls)
     vloc_psi     :     39.79s CPU     40.81s WALL (   91678 calls)
     add_vuspsi   :      7.14s CPU      7.35s WALL (   91678 calls)
     h_1psi       :     56.36s CPU     57.85s WALL (   91532 calls)

     General routines
     calbec       :     27.30s CPU     28.06s WALL (  183265 calls)
     fft          :      0.90s CPU      1.18s WALL (    1764 calls)
     ffts         :      0.74s CPU      0.75s WALL (    2242 calls)
     fftw         :     41.65s CPU     42.70s WALL (  248464 calls)
 
     Parallel routines
     fft_scatter  :     34.58s CPU     35.69s WALL (  252470 calls)
 
     PWSCF        :  1m47.54s CPU     1m52.39s WALL

 
   This run was terminated on:   9: 2:17  26Jan2021            

=------------------------------------------------------------------------------=
   JOB DONE.
=------------------------------------------------------------------------------=
