
     Program PWSCF v.6.1 (svn rev. 13369) starts on 10Mar2021 at 20:24:32 

     This program is part of the open-source Quantum ESPRESSO suite
     for quantum simulation of materials; please cite
         "P. Giannozzi et al., J. Phys.:Condens. Matter 21 395502 (2009);
          URL http://www.quantum-espresso.org", 
     in publications or presentations arising from this work. More details at
     http://www.quantum-espresso.org/quote

     Parallel version (MPI & OpenMP), running on      80 processor cores
     Number of MPI processes:                80
     Threads/MPI process:                     1
     R & G space division:  proc/nbgrp/npool/nimage =      80
     Waiting for input...
     Reading input from standard input

     Current dimensions of program PWSCF are:
     Max number of different atomic species (ntypx) = 10
     Max number of k-points (npk) =  40000
     Max angular momentum in pseudopotentials (lmaxx) =  3

     Atomic positions and unit cell read from directory:
     ./c.save/
 

     IMPORTANT: XC functional enforced from input :
     Exchange-correlation      = PBE ( 1  4  3  4 0 0)
     Any further DFT definition will be discarded
     Please, verify this is what you really want

     Message from routine readpp:
     file ./c.save/C_ONCV_PBE-1.0.upf not found

     Subspace diagonalization in iterative solution of the eigenvalue problem:
     one sub-group per band group will be used
     scalapack distributed-memory algorithm (size of sub-group:  6*  6 procs)

 
     Parallelization info
     --------------------
     sticks:   dense  smooth     PW     G-vecs:    dense   smooth      PW
     Min           4       4      1                   56       56       9
     Max           5       5      2                   60       60      14
     Sum         367     367    121                 4645     4645     869
 


     bravais-lattice index     =            2
     lattice parameter (alat)  =       6.6745  a.u.
     unit-cell volume          =      74.3349 (a.u.)^3
     number of atoms/cell      =            2
     number of atomic types    =            1
     number of electrons       =         8.00
     number of Kohn-Sham states=            8
     kinetic-energy cutoff     =      60.0000  Ry
     charge density cutoff     =     240.0000  Ry
     Exchange-correlation      = PBE ( 1  4  3  4 0 0)

     celldm(1)=   6.674482  celldm(2)=   0.000000  celldm(3)=   0.000000
     celldm(4)=   0.000000  celldm(5)=   0.000000  celldm(6)=   0.000000

     crystal axes: (cart. coord. in units of alat)
               a(1) = (  -0.500000   0.000000   0.500000 )  
               a(2) = (   0.000000   0.500000   0.500000 )  
               a(3) = (  -0.500000   0.500000   0.000000 )  

     reciprocal axes: (cart. coord. in units 2 pi/alat)
               b(1) = ( -1.000000 -1.000000  1.000000 )  
               b(2) = (  1.000000  1.000000  1.000000 )  
               b(3) = ( -1.000000  1.000000 -1.000000 )  


     PseudoPot. # 1 for C  read from file:
     ~/PseudoPotential/upf/C_ONCV_PBE-1.0.upf
     MD5 check sum: Not computed, couldn't open file
     Pseudo is Norm-conserving, Zval =  4.0
     Generated using ONCVPSP code by D. R. Hamann
     Using radial grid of  602 points,  4 beta functions with: 
                l(1) =   0
                l(2) =   0
                l(3) =   1
                l(4) =   1

     atomic species   valence    mass     pseudopotential
        C              4.00    12.01100     C ( 1.00)

     No symmetry found



   Cartesian axes

     site n.     atom                  positions (alat units)
         1           C   tau(   1) = (   0.0000000   0.0000000   0.0000000  )
         2           C   tau(   2) = (  -0.2500000   0.2500000   0.2500000  )

     number of k points=    27
                       cart. coord. in units 2pi/alat
        k(    1) = (   0.0000000   0.0000000   0.0000000), wk =   0.0740741
        k(    2) = (  -0.3333333   0.3333333  -0.3333333), wk =   0.0740741
        k(    3) = (   0.3333333  -0.3333333   0.3333333), wk =   0.0740741
        k(    4) = (   0.3333333   0.3333333   0.3333333), wk =   0.0740741
        k(    5) = (   0.0000000   0.6666667   0.0000000), wk =   0.0740741
        k(    6) = (   0.6666667  -0.0000000   0.6666667), wk =   0.0740741
        k(    7) = (  -0.3333333  -0.3333333  -0.3333333), wk =   0.0740741
        k(    8) = (  -0.6666667  -0.0000000  -0.6666667), wk =   0.0740741
        k(    9) = (   0.0000000  -0.6666667   0.0000000), wk =   0.0740741
        k(   10) = (  -0.3333333  -0.3333333   0.3333333), wk =   0.0740741
        k(   11) = (  -0.6666667   0.0000000   0.0000000), wk =   0.0740741
        k(   12) = (   0.0000000  -0.6666667   0.6666667), wk =   0.0740741
        k(   13) = (   0.0000000   0.0000000   0.6666667), wk =   0.0740741
        k(   14) = (  -0.3333333   0.3333333   0.3333333), wk =   0.0740741
        k(   15) = (   0.3333333  -0.3333333   1.0000000), wk =   0.0740741
        k(   16) = (  -0.6666667  -0.6666667  -0.0000000), wk =   0.0740741
        k(   17) = (  -1.0000000  -0.3333333  -0.3333333), wk =   0.0740741
        k(   18) = (  -0.3333333  -1.0000000   0.3333333), wk =   0.0740741
        k(   19) = (   0.3333333   0.3333333  -0.3333333), wk =   0.0740741
        k(   20) = (   0.0000000   0.6666667  -0.6666667), wk =   0.0740741
        k(   21) = (   0.6666667   0.0000000   0.0000000), wk =   0.0740741
        k(   22) = (   0.6666667   0.6666667  -0.0000000), wk =   0.0740741
        k(   23) = (   0.3333333   1.0000000  -0.3333333), wk =   0.0740741
        k(   24) = (   1.0000000   0.3333333   0.3333333), wk =   0.0740741
        k(   25) = (   0.0000000   0.0000000  -0.6666667), wk =   0.0740741
        k(   26) = (  -0.3333333   0.3333333  -1.0000000), wk =   0.0740741
        k(   27) = (   0.3333333  -0.3333333  -0.3333333), wk =   0.0740741

     Dense  grid:     4645 G-vectors     FFT dimensions: (  24,  24,  24)

     Estimated max dynamical RAM per process >       0.16MB

     Estimated total allocated dynamical RAM >      12.76MB

     The potential is recalculated from file :
     ./c.save/charge-density.dat

     Starting wfc are random

     Band Structure Calculation
     Davidson diagonalization with overlap

     ethr =  1.25E-08,  avg # of iterations = 15.3

     total cpu time spent up to now is        4.6 secs

     End of band structure calculation

          k = 0.0000 0.0000 0.0000 (   561 PWs)   bands (ev):

    -7.9848  13.8653  13.8653  13.8653  19.5383  19.5383  19.5383  27.8717

          k =-0.3333 0.3333-0.3333 (   589 PWs)   bands (ev):

    -4.9079   4.3045  11.4706  11.4706  22.2861  22.2861  22.7976  29.4745

          k = 0.3333-0.3333 0.3333 (   589 PWs)   bands (ev):

    -4.9079   4.3045  11.4706  11.4706  22.2861  22.2861  22.7976  29.4745

          k = 0.3333 0.3333 0.3333 (   589 PWs)   bands (ev):

    -4.9079   4.3045  11.4706  11.4706  22.2861  22.2861  22.7976  29.4745

          k = 0.0000 0.6667 0.0000 (   576 PWs)   bands (ev):

    -3.8858   6.6102   8.3965   8.3965  18.1154  21.7553  28.2396  28.2396

          k = 0.6667-0.0000 0.6667 (   578 PWs)   bands (ev):

    -0.3842   2.7581   4.2262   9.0401  20.3411  27.0682  27.7421  29.3095

          k =-0.3333-0.3333-0.3333 (   589 PWs)   bands (ev):

    -4.9079   4.3045  11.4706  11.4706  22.2861  22.2861  22.7976  29.4745

          k =-0.6667-0.0000-0.6667 (   578 PWs)   bands (ev):

    -0.3842   2.7581   4.2262   9.0401  20.3411  27.0682  27.7421  29.3095

          k = 0.0000-0.6667 0.0000 (   576 PWs)   bands (ev):

    -3.8858   6.6102   8.3965   8.3965  18.1154  21.7553  28.2396  28.2396

          k =-0.3333-0.3333 0.3333 (   589 PWs)   bands (ev):

    -4.9079   4.3045  11.4706  11.4706  22.2861  22.2861  22.7976  29.4745

          k =-0.6667 0.0000 0.0000 (   576 PWs)   bands (ev):

    -3.8858   6.6102   8.3965   8.3965  18.1154  21.7553  28.2396  28.2396

          k = 0.0000-0.6667 0.6667 (   578 PWs)   bands (ev):

    -0.3842   2.7581   4.2262   9.0401  20.3411  27.0682  27.7421  29.3095

          k = 0.0000 0.0000 0.6667 (   576 PWs)   bands (ev):

    -3.8858   6.6102   8.3965   8.3965  18.1154  21.7553  28.2396  28.2396

          k =-0.3333 0.3333 0.3333 (   589 PWs)   bands (ev):

    -4.9079   4.3045  11.4706  11.4706  22.2861  22.2861  22.7976  29.4745

          k = 0.3333-0.3333 1.0000 (   578 PWs)   bands (ev):

    -0.3842   2.7581   4.2262   9.0401  20.3411  27.0682  27.7421  29.3095

          k =-0.6667-0.6667-0.0000 (   578 PWs)   bands (ev):

    -0.3842   2.7581   4.2262   9.0401  20.3411  27.0682  27.7421  29.3095

          k =-1.0000-0.3333-0.3333 (   578 PWs)   bands (ev):

    -0.3842   2.7581   4.2262   9.0401  20.3411  27.0682  27.7421  29.3095

          k =-0.3333-1.0000 0.3333 (   578 PWs)   bands (ev):

    -0.3842   2.7581   4.2262   9.0401  20.3411  27.0682  27.7421  29.3095

          k = 0.3333 0.3333-0.3333 (   589 PWs)   bands (ev):

    -4.9079   4.3045  11.4706  11.4706  22.2861  22.2861  22.7976  29.4745

          k = 0.0000 0.6667-0.6667 (   578 PWs)   bands (ev):

    -0.3842   2.7581   4.2262   9.0401  20.3411  27.0682  27.7421  29.3095

          k = 0.6667 0.0000 0.0000 (   576 PWs)   bands (ev):

    -3.8858   6.6102   8.3965   8.3965  18.1154  21.7553  28.2396  28.2396

          k = 0.6667 0.6667-0.0000 (   578 PWs)   bands (ev):

    -0.3842   2.7581   4.2262   9.0401  20.3411  27.0682  27.7421  29.3095

          k = 0.3333 1.0000-0.3333 (   578 PWs)   bands (ev):

    -0.3842   2.7581   4.2262   9.0401  20.3411  27.0682  27.7421  29.3095

          k = 1.0000 0.3333 0.3333 (   578 PWs)   bands (ev):

    -0.3842   2.7581   4.2262   9.0401  20.3411  27.0682  27.7421  29.3095

          k = 0.0000 0.0000-0.6667 (   576 PWs)   bands (ev):

    -3.8858   6.6102   8.3965   8.3965  18.1154  21.7553  28.2396  28.2396

          k =-0.3333 0.3333-1.0000 (   578 PWs)   bands (ev):

    -0.3842   2.7581   4.2262   9.0401  20.3411  27.0682  27.7421  29.3095

          k = 0.3333-0.3333-0.3333 (   589 PWs)   bands (ev):

    -4.9079   4.3045  11.4706  11.4706  22.2861  22.2861  22.7976  29.4745

     highest occupied, lowest unoccupied level (ev):    13.8653   18.1154

     Writing output data file c.save
 
     init_run     :      0.42s CPU      0.69s WALL (       1 calls)
     electrons    :      3.21s CPU      3.24s WALL (       1 calls)

     Called by init_run:
     wfcinit      :      0.00s CPU      0.00s WALL (       1 calls)
     potinit      :      0.03s CPU      0.03s WALL (       1 calls)

     Called by electrons:
     c_bands      :      3.21s CPU      3.24s WALL (       1 calls)
     v_of_rho     :      0.02s CPU      0.02s WALL (       1 calls)

     Called by c_bands:
     init_us_2    :      0.00s CPU      0.00s WALL (      27 calls)
     cegterg      :      2.90s CPU      2.92s WALL (      27 calls)

     Called by sum_band:

     Called by *egterg:
     h_psi        :      0.32s CPU      0.33s WALL (     466 calls)
     g_psi        :      0.00s CPU      0.00s WALL (     412 calls)
     cdiaghg      :      1.54s CPU      1.55s WALL (     439 calls)

     Called by h_psi:
     h_psi:pot    :      0.32s CPU      0.33s WALL (     466 calls)
     h_psi:calbec :      0.03s CPU      0.04s WALL (     466 calls)
     vloc_psi     :      0.28s CPU      0.29s WALL (     466 calls)
     add_vuspsi   :      0.00s CPU      0.00s WALL (     466 calls)

     General routines
     calbec       :      0.03s CPU      0.03s WALL (     466 calls)
     fft          :      0.21s CPU      0.47s WALL (      10 calls)
     fftw         :      0.27s CPU      0.28s WALL (    5592 calls)
 
     Parallel routines
     fft_scatter  :      0.45s CPU      0.71s WALL (    5602 calls)
 
     PWSCF        :     4.52s CPU         5.23s WALL

 
   This run was terminated on:  20:24:37  10Mar2021            

=------------------------------------------------------------------------------=
   JOB DONE.
=------------------------------------------------------------------------------=
