
     Program PWSCF v.6.1 (svn rev. 13369) starts on 10Nov2020 at  9:21:49 

     This program is part of the open-source Quantum ESPRESSO suite
     for quantum simulation of materials; please cite
         "P. Giannozzi et al., J. Phys.:Condens. Matter 21 395502 (2009);
          URL http://www.quantum-espresso.org", 
     in publications or presentations arising from this work. More details at
     http://www.quantum-espresso.org/quote

     Parallel version (MPI & OpenMP), running on     224 processor cores
     Number of MPI processes:               224
     Threads/MPI process:                     1
     R & G space division:  proc/nbgrp/npool/nimage =     224
     Waiting for input...
     Reading input from standard input

     Current dimensions of program PWSCF are:
     Max number of different atomic species (ntypx) = 10
     Max number of k-points (npk) =  40000
     Max angular momentum in pseudopotentials (lmaxx) =  3

     IMPORTANT: XC functional enforced from input :
     Exchange-correlation      = PBE ( 1  4  3  4 0 0)
     Any further DFT definition will be discarded
     Please, verify this is what you really want


     Subspace diagonalization in iterative solution of the eigenvalue problem:
     one sub-group per band group will be used
     scalapack distributed-memory algorithm (size of sub-group: 10* 10 procs)

 
     Parallelization info
     --------------------
     sticks:   dense  smooth     PW     G-vecs:    dense   smooth      PW
     Min          34      34      8                 2006     2006     247
     Max          35      35      9                 2013     2013     256
     Sum        7765    7765   1945               450159   450159   56233
 


     bravais-lattice index     =            2
     lattice parameter (alat)  =      33.5171  a.u.
     unit-cell volume          =    9413.2672 (a.u.)^3
     number of atoms/cell      =          250
     number of atomic types    =            2
     number of electrons       =       998.00
     number of Kohn-Sham states=          600
     kinetic-energy cutoff     =      50.0000  Ry
     charge density cutoff     =     200.0000  Ry
     convergence threshold     =      1.0E-10
     mixing beta               =       0.7000
     number of iterations used =            8  local-TF  mixing
     Exchange-correlation      = PBE ( 1  4  3  4 0 0)
     nstep                     =           50


     celldm(1)=  33.517128  celldm(2)=   0.000000  celldm(3)=   0.000000
     celldm(4)=   0.000000  celldm(5)=   0.000000  celldm(6)=   0.000000

     crystal axes: (cart. coord. in units of alat)
               a(1) = (  -0.500000   0.000000   0.500000 )  
               a(2) = (   0.000000   0.500000   0.500000 )  
               a(3) = (  -0.500000   0.500000   0.000000 )  

     reciprocal axes: (cart. coord. in units 2 pi/alat)
               b(1) = ( -1.000000 -1.000000  1.000000 )  
               b(2) = (  1.000000  1.000000  1.000000 )  
               b(3) = ( -1.000000  1.000000 -1.000000 )  


     PseudoPot. # 1 for C  read from file:
     ~/PseudoPotential/upf/C_ONCV_PBE-1.0.upf
     MD5 check sum: Not computed, couldn't open file
     Pseudo is Norm-conserving, Zval =  4.0
     Generated using ONCVPSP code by D. R. Hamann
     Using radial grid of  602 points,  4 beta functions with: 
                l(1) =   0
                l(2) =   0
                l(3) =   1
                l(4) =   1

     PseudoPot. # 2 for B  read from file:
     ~/PseudoPotential/upf/B_ONCV_PBE-1.0.upf
     MD5 check sum: Not computed, couldn't open file
     Pseudo is Norm-conserving, Zval =  3.0
     Generated using ONCVPSP code by D. R. Hamann
     Using radial grid of  602 points,  4 beta functions with: 
                l(1) =   0
                l(2) =   0
                l(3) =   1
                l(4) =   1

     atomic species   valence    mass     pseudopotential
        C              4.00    12.01100     C ( 1.00)
        B              3.00    10.81100     B ( 1.00)

     No symmetry found



   Cartesian axes

     site n.     atom                  positions (alat units)
         1           B   tau(   1) = (   0.0000000   0.0000000   0.0000000  )
         2           B   tau(   2) = (  -0.0500000   0.0500000   0.0500000  )
         3           C   tau(   3) = (  -0.1000000   0.1000000   0.0000000  )
         4           C   tau(   4) = (  -0.1500000   0.1500000   0.0500000  )
         5           C   tau(   5) = (  -0.2000000   0.2000000   0.0000000  )
         6           C   tau(   6) = (  -0.2500000   0.2500000   0.0500000  )
         7           C   tau(   7) = (  -0.3000000   0.3000000   0.0000000  )
         8           C   tau(   8) = (  -0.3500000   0.3500000   0.0500000  )
         9           C   tau(   9) = (  -0.4000000   0.4000000   0.0000000  )
        10           C   tau(  10) = (  -0.4500000   0.4500000   0.0500000  )
        11           C   tau(  11) = (   0.0000000   0.1000000   0.1000000  )
        12           C   tau(  12) = (  -0.0500000   0.1500000   0.1500000  )
        13           C   tau(  13) = (  -0.1000000   0.2000000   0.1000000  )
        14           C   tau(  14) = (  -0.1500000   0.2500000   0.1500000  )
        15           C   tau(  15) = (  -0.2000000   0.3000000   0.1000000  )
        16           C   tau(  16) = (  -0.2500000   0.3500000   0.1500000  )
        17           C   tau(  17) = (  -0.3000000   0.4000000   0.1000000  )
        18           C   tau(  18) = (  -0.3500000   0.4500000   0.1500000  )
        19           C   tau(  19) = (  -0.4000000   0.5000000   0.1000000  )
        20           C   tau(  20) = (  -0.4500000   0.5500000   0.1500000  )
        21           C   tau(  21) = (   0.0000000   0.2000000   0.2000000  )
        22           C   tau(  22) = (  -0.0500000   0.2500000   0.2500000  )
        23           C   tau(  23) = (  -0.1000000   0.3000000   0.2000000  )
        24           C   tau(  24) = (  -0.1500000   0.3500000   0.2500000  )
        25           C   tau(  25) = (  -0.2000000   0.4000000   0.2000000  )
        26           C   tau(  26) = (  -0.2500000   0.4500000   0.2500000  )
        27           C   tau(  27) = (  -0.3000000   0.5000000   0.2000000  )
        28           C   tau(  28) = (  -0.3500000   0.5500000   0.2500000  )
        29           C   tau(  29) = (  -0.4000000   0.6000000   0.2000000  )
        30           C   tau(  30) = (  -0.4500000   0.6500000   0.2500000  )
        31           C   tau(  31) = (   0.0000000   0.3000000   0.3000000  )
        32           C   tau(  32) = (  -0.0500000   0.3500000   0.3500000  )
        33           C   tau(  33) = (  -0.1000000   0.4000000   0.3000000  )
        34           C   tau(  34) = (  -0.1500000   0.4500000   0.3500000  )
        35           C   tau(  35) = (  -0.2000000   0.5000000   0.3000000  )
        36           C   tau(  36) = (  -0.2500000   0.5500000   0.3500000  )
        37           C   tau(  37) = (  -0.3000000   0.6000000   0.3000000  )
        38           C   tau(  38) = (  -0.3500000   0.6500000   0.3500000  )
        39           C   tau(  39) = (  -0.4000000   0.7000000   0.3000000  )
        40           C   tau(  40) = (  -0.4500000   0.7500000   0.3500000  )
        41           C   tau(  41) = (   0.0000000   0.4000000   0.4000000  )
        42           C   tau(  42) = (  -0.0500000   0.4500000   0.4500000  )
        43           C   tau(  43) = (  -0.1000000   0.5000000   0.4000000  )
        44           C   tau(  44) = (  -0.1500000   0.5500000   0.4500000  )
        45           C   tau(  45) = (  -0.2000000   0.6000000   0.4000000  )
        46           C   tau(  46) = (  -0.2500000   0.6500000   0.4500000  )
        47           C   tau(  47) = (  -0.3000000   0.7000000   0.4000000  )
        48           C   tau(  48) = (  -0.3500000   0.7500000   0.4500000  )
        49           C   tau(  49) = (  -0.4000000   0.8000000   0.4000000  )
        50           C   tau(  50) = (  -0.4500000   0.8500000   0.4500000  )
        51           C   tau(  51) = (  -0.1000000   0.0000000   0.1000000  )
        52           C   tau(  52) = (  -0.1500000   0.0500000   0.1500000  )
        53           C   tau(  53) = (  -0.2000000   0.1000000   0.1000000  )
        54           C   tau(  54) = (  -0.2500000   0.1500000   0.1500000  )
        55           C   tau(  55) = (  -0.3000000   0.2000000   0.1000000  )
        56           C   tau(  56) = (  -0.3500000   0.2500000   0.1500000  )
        57           C   tau(  57) = (  -0.4000000   0.3000000   0.1000000  )
        58           C   tau(  58) = (  -0.4500000   0.3500000   0.1500000  )
        59           C   tau(  59) = (  -0.5000000   0.4000000   0.1000000  )
        60           C   tau(  60) = (  -0.5500000   0.4500000   0.1500000  )
        61           C   tau(  61) = (  -0.1000000   0.1000000   0.2000000  )
        62           C   tau(  62) = (  -0.1500000   0.1500000   0.2500000  )
        63           C   tau(  63) = (  -0.2000000   0.2000000   0.2000000  )
        64           C   tau(  64) = (  -0.2500000   0.2500000   0.2500000  )
        65           C   tau(  65) = (  -0.3000000   0.3000000   0.2000000  )
        66           C   tau(  66) = (  -0.3500000   0.3500000   0.2500000  )
        67           C   tau(  67) = (  -0.4000000   0.4000000   0.2000000  )
        68           C   tau(  68) = (  -0.4500000   0.4500000   0.2500000  )
        69           C   tau(  69) = (  -0.5000000   0.5000000   0.2000000  )
        70           C   tau(  70) = (  -0.5500000   0.5500000   0.2500000  )
        71           C   tau(  71) = (  -0.1000000   0.2000000   0.3000000  )
        72           C   tau(  72) = (  -0.1500000   0.2500000   0.3500000  )
        73           C   tau(  73) = (  -0.2000000   0.3000000   0.3000000  )
        74           C   tau(  74) = (  -0.2500000   0.3500000   0.3500000  )
        75           C   tau(  75) = (  -0.3000000   0.4000000   0.3000000  )
        76           C   tau(  76) = (  -0.3500000   0.4500000   0.3500000  )
        77           C   tau(  77) = (  -0.4000000   0.5000000   0.3000000  )
        78           C   tau(  78) = (  -0.4500000   0.5500000   0.3500000  )
        79           C   tau(  79) = (  -0.5000000   0.6000000   0.3000000  )
        80           C   tau(  80) = (  -0.5500000   0.6500000   0.3500000  )
        81           C   tau(  81) = (  -0.1000000   0.3000000   0.4000000  )
        82           C   tau(  82) = (  -0.1500000   0.3500000   0.4500000  )
        83           C   tau(  83) = (  -0.2000000   0.4000000   0.4000000  )
        84           C   tau(  84) = (  -0.2500000   0.4500000   0.4500000  )
        85           C   tau(  85) = (  -0.3000000   0.5000000   0.4000000  )
        86           C   tau(  86) = (  -0.3500000   0.5500000   0.4500000  )
        87           C   tau(  87) = (  -0.4000000   0.6000000   0.4000000  )
        88           C   tau(  88) = (  -0.4500000   0.6500000   0.4500000  )
        89           C   tau(  89) = (  -0.5000000   0.7000000   0.4000000  )
        90           C   tau(  90) = (  -0.5500000   0.7500000   0.4500000  )
        91           C   tau(  91) = (  -0.1000000   0.4000000   0.5000000  )
        92           C   tau(  92) = (  -0.1500000   0.4500000   0.5500000  )
        93           C   tau(  93) = (  -0.2000000   0.5000000   0.5000000  )
        94           C   tau(  94) = (  -0.2500000   0.5500000   0.5500000  )
        95           C   tau(  95) = (  -0.3000000   0.6000000   0.5000000  )
        96           C   tau(  96) = (  -0.3500000   0.6500000   0.5500000  )
        97           C   tau(  97) = (  -0.4000000   0.7000000   0.5000000  )
        98           C   tau(  98) = (  -0.4500000   0.7500000   0.5500000  )
        99           C   tau(  99) = (  -0.5000000   0.8000000   0.5000000  )
       100           C   tau( 100) = (  -0.5500000   0.8500000   0.5500000  )
       101           C   tau( 101) = (  -0.2000000   0.0000000   0.2000000  )
       102           C   tau( 102) = (  -0.2500000   0.0500000   0.2500000  )
       103           C   tau( 103) = (  -0.3000000   0.1000000   0.2000000  )
       104           C   tau( 104) = (  -0.3500000   0.1500000   0.2500000  )
       105           C   tau( 105) = (  -0.4000000   0.2000000   0.2000000  )
       106           C   tau( 106) = (  -0.4500000   0.2500000   0.2500000  )
       107           C   tau( 107) = (  -0.5000000   0.3000000   0.2000000  )
       108           C   tau( 108) = (  -0.5500000   0.3500000   0.2500000  )
       109           C   tau( 109) = (  -0.6000000   0.4000000   0.2000000  )
       110           C   tau( 110) = (  -0.6500000   0.4500000   0.2500000  )
       111           C   tau( 111) = (  -0.2000000   0.1000000   0.3000000  )
       112           C   tau( 112) = (  -0.2500000   0.1500000   0.3500000  )
       113           C   tau( 113) = (  -0.3000000   0.2000000   0.3000000  )
       114           C   tau( 114) = (  -0.3500000   0.2500000   0.3500000  )
       115           C   tau( 115) = (  -0.4000000   0.3000000   0.3000000  )
       116           C   tau( 116) = (  -0.4500000   0.3500000   0.3500000  )
       117           C   tau( 117) = (  -0.5000000   0.4000000   0.3000000  )
       118           C   tau( 118) = (  -0.5500000   0.4500000   0.3500000  )
       119           C   tau( 119) = (  -0.6000000   0.5000000   0.3000000  )
       120           C   tau( 120) = (  -0.6500000   0.5500000   0.3500000  )
       121           C   tau( 121) = (  -0.2000000   0.2000000   0.4000000  )
       122           C   tau( 122) = (  -0.2500000   0.2500000   0.4500000  )
       123           C   tau( 123) = (  -0.3000000   0.3000000   0.4000000  )
       124           C   tau( 124) = (  -0.3500000   0.3500000   0.4500000  )
       125           C   tau( 125) = (  -0.4000000   0.4000000   0.4000000  )
       126           C   tau( 126) = (  -0.4500000   0.4500000   0.4500000  )
       127           C   tau( 127) = (  -0.5000000   0.5000000   0.4000000  )
       128           C   tau( 128) = (  -0.5500000   0.5500000   0.4500000  )
       129           C   tau( 129) = (  -0.6000000   0.6000000   0.4000000  )
       130           C   tau( 130) = (  -0.6500000   0.6500000   0.4500000  )
       131           C   tau( 131) = (  -0.2000000   0.3000000   0.5000000  )
       132           C   tau( 132) = (  -0.2500000   0.3500000   0.5500000  )
       133           C   tau( 133) = (  -0.3000000   0.4000000   0.5000000  )
       134           C   tau( 134) = (  -0.3500000   0.4500000   0.5500000  )
       135           C   tau( 135) = (  -0.4000000   0.5000000   0.5000000  )
       136           C   tau( 136) = (  -0.4500000   0.5500000   0.5500000  )
       137           C   tau( 137) = (  -0.5000000   0.6000000   0.5000000  )
       138           C   tau( 138) = (  -0.5500000   0.6500000   0.5500000  )
       139           C   tau( 139) = (  -0.6000000   0.7000000   0.5000000  )
       140           C   tau( 140) = (  -0.6500000   0.7500000   0.5500000  )
       141           C   tau( 141) = (  -0.2000000   0.4000000   0.6000000  )
       142           C   tau( 142) = (  -0.2500000   0.4500000   0.6500000  )
       143           C   tau( 143) = (  -0.3000000   0.5000000   0.6000000  )
       144           C   tau( 144) = (  -0.3500000   0.5500000   0.6500000  )
       145           C   tau( 145) = (  -0.4000000   0.6000000   0.6000000  )
       146           C   tau( 146) = (  -0.4500000   0.6500000   0.6500000  )
       147           C   tau( 147) = (  -0.5000000   0.7000000   0.6000000  )
       148           C   tau( 148) = (  -0.5500000   0.7500000   0.6500000  )
       149           C   tau( 149) = (  -0.6000000   0.8000000   0.6000000  )
       150           C   tau( 150) = (  -0.6500000   0.8500000   0.6500000  )
       151           C   tau( 151) = (  -0.3000000   0.0000000   0.3000000  )
       152           C   tau( 152) = (  -0.3500000   0.0500000   0.3500000  )
       153           C   tau( 153) = (  -0.4000000   0.1000000   0.3000000  )
       154           C   tau( 154) = (  -0.4500000   0.1500000   0.3500000  )
       155           C   tau( 155) = (  -0.5000000   0.2000000   0.3000000  )
       156           C   tau( 156) = (  -0.5500000   0.2500000   0.3500000  )
       157           C   tau( 157) = (  -0.6000000   0.3000000   0.3000000  )
       158           C   tau( 158) = (  -0.6500000   0.3500000   0.3500000  )
       159           C   tau( 159) = (  -0.7000000   0.4000000   0.3000000  )
       160           C   tau( 160) = (  -0.7500000   0.4500000   0.3500000  )
       161           C   tau( 161) = (  -0.3000000   0.1000000   0.4000000  )
       162           C   tau( 162) = (  -0.3500000   0.1500000   0.4500000  )
       163           C   tau( 163) = (  -0.4000000   0.2000000   0.4000000  )
       164           C   tau( 164) = (  -0.4500000   0.2500000   0.4500000  )
       165           C   tau( 165) = (  -0.5000000   0.3000000   0.4000000  )
       166           C   tau( 166) = (  -0.5500000   0.3500000   0.4500000  )
       167           C   tau( 167) = (  -0.6000000   0.4000000   0.4000000  )
       168           C   tau( 168) = (  -0.6500000   0.4500000   0.4500000  )
       169           C   tau( 169) = (  -0.7000000   0.5000000   0.4000000  )
       170           C   tau( 170) = (  -0.7500000   0.5500000   0.4500000  )
       171           C   tau( 171) = (  -0.3000000   0.2000000   0.5000000  )
       172           C   tau( 172) = (  -0.3500000   0.2500000   0.5500000  )
       173           C   tau( 173) = (  -0.4000000   0.3000000   0.5000000  )
       174           C   tau( 174) = (  -0.4500000   0.3500000   0.5500000  )
       175           C   tau( 175) = (  -0.5000000   0.4000000   0.5000000  )
       176           C   tau( 176) = (  -0.5500000   0.4500000   0.5500000  )
       177           C   tau( 177) = (  -0.6000000   0.5000000   0.5000000  )
       178           C   tau( 178) = (  -0.6500000   0.5500000   0.5500000  )
       179           C   tau( 179) = (  -0.7000000   0.6000000   0.5000000  )
       180           C   tau( 180) = (  -0.7500000   0.6500000   0.5500000  )
       181           C   tau( 181) = (  -0.3000000   0.3000000   0.6000000  )
       182           C   tau( 182) = (  -0.3500000   0.3500000   0.6500000  )
       183           C   tau( 183) = (  -0.4000000   0.4000000   0.6000000  )
       184           C   tau( 184) = (  -0.4500000   0.4500000   0.6500000  )
       185           C   tau( 185) = (  -0.5000000   0.5000000   0.6000000  )
       186           C   tau( 186) = (  -0.5500000   0.5500000   0.6500000  )
       187           C   tau( 187) = (  -0.6000000   0.6000000   0.6000000  )
       188           C   tau( 188) = (  -0.6500000   0.6500000   0.6500000  )
       189           C   tau( 189) = (  -0.7000000   0.7000000   0.6000000  )
       190           C   tau( 190) = (  -0.7500000   0.7500000   0.6500000  )
       191           C   tau( 191) = (  -0.3000000   0.4000000   0.7000000  )
       192           C   tau( 192) = (  -0.3500000   0.4500000   0.7500000  )
       193           C   tau( 193) = (  -0.4000000   0.5000000   0.7000000  )
       194           C   tau( 194) = (  -0.4500000   0.5500000   0.7500000  )
       195           C   tau( 195) = (  -0.5000000   0.6000000   0.7000000  )
       196           C   tau( 196) = (  -0.5500000   0.6500000   0.7500000  )
       197           C   tau( 197) = (  -0.6000000   0.7000000   0.7000000  )
       198           C   tau( 198) = (  -0.6500000   0.7500000   0.7500000  )
       199           C   tau( 199) = (  -0.7000000   0.8000000   0.7000000  )
       200           C   tau( 200) = (  -0.7500000   0.8500000   0.7500000  )
       201           C   tau( 201) = (  -0.4000000   0.0000000   0.4000000  )
       202           C   tau( 202) = (  -0.4500000   0.0500000   0.4500000  )
       203           C   tau( 203) = (  -0.5000000   0.1000000   0.4000000  )
       204           C   tau( 204) = (  -0.5500000   0.1500000   0.4500000  )
       205           C   tau( 205) = (  -0.6000000   0.2000000   0.4000000  )
       206           C   tau( 206) = (  -0.6500000   0.2500000   0.4500000  )
       207           C   tau( 207) = (  -0.7000000   0.3000000   0.4000000  )
       208           C   tau( 208) = (  -0.7500000   0.3500000   0.4500000  )
       209           C   tau( 209) = (  -0.8000000   0.4000000   0.4000000  )
       210           C   tau( 210) = (  -0.8500000   0.4500000   0.4500000  )
       211           C   tau( 211) = (  -0.4000000   0.1000000   0.5000000  )
       212           C   tau( 212) = (  -0.4500000   0.1500000   0.5500000  )
       213           C   tau( 213) = (  -0.5000000   0.2000000   0.5000000  )
       214           C   tau( 214) = (  -0.5500000   0.2500000   0.5500000  )
       215           C   tau( 215) = (  -0.6000000   0.3000000   0.5000000  )
       216           C   tau( 216) = (  -0.6500000   0.3500000   0.5500000  )
       217           C   tau( 217) = (  -0.7000000   0.4000000   0.5000000  )
       218           C   tau( 218) = (  -0.7500000   0.4500000   0.5500000  )
       219           C   tau( 219) = (  -0.8000000   0.5000000   0.5000000  )
       220           C   tau( 220) = (  -0.8500000   0.5500000   0.5500000  )
       221           C   tau( 221) = (  -0.4000000   0.2000000   0.6000000  )
       222           C   tau( 222) = (  -0.4500000   0.2500000   0.6500000  )
       223           C   tau( 223) = (  -0.5000000   0.3000000   0.6000000  )
       224           C   tau( 224) = (  -0.5500000   0.3500000   0.6500000  )
       225           C   tau( 225) = (  -0.6000000   0.4000000   0.6000000  )
       226           C   tau( 226) = (  -0.6500000   0.4500000   0.6500000  )
       227           C   tau( 227) = (  -0.7000000   0.5000000   0.6000000  )
       228           C   tau( 228) = (  -0.7500000   0.5500000   0.6500000  )
       229           C   tau( 229) = (  -0.8000000   0.6000000   0.6000000  )
       230           C   tau( 230) = (  -0.8500000   0.6500000   0.6500000  )
       231           C   tau( 231) = (  -0.4000000   0.3000000   0.7000000  )
       232           C   tau( 232) = (  -0.4500000   0.3500000   0.7500000  )
       233           C   tau( 233) = (  -0.5000000   0.4000000   0.7000000  )
       234           C   tau( 234) = (  -0.5500000   0.4500000   0.7500000  )
       235           C   tau( 235) = (  -0.6000000   0.5000000   0.7000000  )
       236           C   tau( 236) = (  -0.6500000   0.5500000   0.7500000  )
       237           C   tau( 237) = (  -0.7000000   0.6000000   0.7000000  )
       238           C   tau( 238) = (  -0.7500000   0.6500000   0.7500000  )
       239           C   tau( 239) = (  -0.8000000   0.7000000   0.7000000  )
       240           C   tau( 240) = (  -0.8500000   0.7500000   0.7500000  )
       241           C   tau( 241) = (  -0.4000000   0.4000000   0.8000000  )
       242           C   tau( 242) = (  -0.4500000   0.4500000   0.8500000  )
       243           C   tau( 243) = (  -0.5000000   0.5000000   0.8000000  )
       244           C   tau( 244) = (  -0.5500000   0.5500000   0.8500000  )
       245           C   tau( 245) = (  -0.6000000   0.6000000   0.8000000  )
       246           C   tau( 246) = (  -0.6500000   0.6500000   0.8500000  )
       247           C   tau( 247) = (  -0.7000000   0.7000000   0.8000000  )
       248           C   tau( 248) = (  -0.7500000   0.7500000   0.8500000  )
       249           C   tau( 249) = (  -0.8000000   0.8000000   0.8000000  )
       250           C   tau( 250) = (  -0.8500000   0.8500000   0.8500000  )

     number of k points=     1
                       cart. coord. in units 2pi/alat
        k(    1) = (   0.0000000   0.0000000   0.0000000), wk =   2.0000000

     Dense  grid:   450159 G-vectors     FFT dimensions: ( 108, 108, 108)

     Estimated max dynamical RAM per process >      40.78MB

     Estimated total allocated dynamical RAM >    9134.11MB

     Initial potential from superposition of free atoms

     starting charge  996.23812, renormalised to  998.00000
     Starting wfc are random

     total cpu time spent up to now is        2.5 secs

     per-process dynamical memory:    65.8 Mb

     Self-consistent Calculation

     iteration #  1     ecut=    50.00 Ry     beta=0.70
     Davidson diagonalization with overlap
     ethr =  1.00E-02,  avg # of iterations = 11.0

     total cpu time spent up to now is       20.7 secs

     total energy              =   -2834.78514844 Ry
     Harris-Foulkes estimate   =   -2839.65984107 Ry
     estimated scf accuracy    <      15.62956019 Ry

     iteration #  2     ecut=    50.00 Ry     beta=0.70
     Davidson diagonalization with overlap
     ethr =  1.57E-03,  avg # of iterations = 12.0

     negative rho (up, down):  3.345E-05 0.000E+00

     total cpu time spent up to now is       31.5 secs

     total energy              =   -2833.95488850 Ry
     Harris-Foulkes estimate   =   -2835.43147516 Ry
     estimated scf accuracy    <       3.64640119 Ry

     iteration #  3     ecut=    50.00 Ry     beta=0.70
     Davidson diagonalization with overlap
     ethr =  3.65E-04,  avg # of iterations =  5.0

     total cpu time spent up to now is       37.6 secs

     total energy              =   -2834.37411105 Ry
     Harris-Foulkes estimate   =   -2834.38242627 Ry
     estimated scf accuracy    <       0.09838714 Ry

     iteration #  4     ecut=    50.00 Ry     beta=0.70
     Davidson diagonalization with overlap
     ethr =  9.86E-06,  avg # of iterations = 17.0

     total cpu time spent up to now is       61.9 secs

     total energy              =   -2834.40562257 Ry
     Harris-Foulkes estimate   =   -2834.40164658 Ry
     estimated scf accuracy    <       0.02553218 Ry

     iteration #  5     ecut=    50.00 Ry     beta=0.70
     Davidson diagonalization with overlap
     ethr =  2.56E-06,  avg # of iterations =  5.0

     total cpu time spent up to now is       67.7 secs

     total energy              =   -2834.40623148 Ry
     Harris-Foulkes estimate   =   -2834.40900015 Ry
     estimated scf accuracy    <       0.02720076 Ry

     iteration #  6     ecut=    50.00 Ry     beta=0.70
     Davidson diagonalization with overlap
     ethr =  2.56E-06,  avg # of iterations =  4.0

     total cpu time spent up to now is       71.6 secs

     total energy              =   -2834.40486278 Ry
     Harris-Foulkes estimate   =   -2834.40682771 Ry
     estimated scf accuracy    <       0.00936916 Ry

     iteration #  7     ecut=    50.00 Ry     beta=0.70
     Davidson diagonalization with overlap
     ethr =  9.39E-07,  avg # of iterations = 10.0

     total cpu time spent up to now is       81.5 secs

     total energy              =   -2834.40598785 Ry
     Harris-Foulkes estimate   =   -2834.40606096 Ry
     estimated scf accuracy    <       0.00073934 Ry

     iteration #  8     ecut=    50.00 Ry     beta=0.70
     Davidson diagonalization with overlap
     ethr =  7.41E-08,  avg # of iterations = 11.0

     total cpu time spent up to now is       93.0 secs

     total energy              =   -2834.40604054 Ry
     Harris-Foulkes estimate   =   -2834.40606826 Ry
     estimated scf accuracy    <       0.00016616 Ry

     iteration #  9     ecut=    50.00 Ry     beta=0.70
     Davidson diagonalization with overlap
     ethr =  1.66E-08,  avg # of iterations =  8.0

     total cpu time spent up to now is      100.1 secs

     total energy              =   -2834.40604542 Ry
     Harris-Foulkes estimate   =   -2834.40605352 Ry
     estimated scf accuracy    <       0.00003146 Ry

     iteration # 10     ecut=    50.00 Ry     beta=0.70
     Davidson diagonalization with overlap
     ethr =  3.15E-09,  avg # of iterations = 11.0

     total cpu time spent up to now is      113.4 secs

     total energy              =   -2834.40605007 Ry
     Harris-Foulkes estimate   =   -2834.40605069 Ry
     estimated scf accuracy    <       0.00000355 Ry

     iteration # 11     ecut=    50.00 Ry     beta=0.70
     Davidson diagonalization with overlap
     ethr =  3.56E-10,  avg # of iterations =  6.0

     total cpu time spent up to now is      120.4 secs

     total energy              =   -2834.40605008 Ry
     Harris-Foulkes estimate   =   -2834.40605042 Ry
     estimated scf accuracy    <       0.00000105 Ry

     iteration # 12     ecut=    50.00 Ry     beta=0.70
     Davidson diagonalization with overlap
     ethr =  1.06E-10,  avg # of iterations =  9.0

     total cpu time spent up to now is      130.9 secs

     total energy              =   -2834.40605020 Ry
     Harris-Foulkes estimate   =   -2834.40605023 Ry
     estimated scf accuracy    <       0.00000014 Ry

     iteration # 13     ecut=    50.00 Ry     beta=0.70
     Davidson diagonalization with overlap
     ethr =  1.36E-11,  avg # of iterations =  8.0

     total cpu time spent up to now is      140.3 secs

     total energy              =   -2834.40605021 Ry
     Harris-Foulkes estimate   =   -2834.40605022 Ry
     estimated scf accuracy    <       0.00000002 Ry

     iteration # 14     ecut=    50.00 Ry     beta=0.70
     Davidson diagonalization with overlap
     ethr =  2.50E-12,  avg # of iterations = 13.0

     total cpu time spent up to now is      152.6 secs

     total energy              =   -2834.40605021 Ry
     Harris-Foulkes estimate   =   -2834.40605022 Ry
     estimated scf accuracy    <       0.00000001 Ry

     iteration # 15     ecut=    50.00 Ry     beta=0.70
     Davidson diagonalization with overlap
     ethr =  1.06E-12,  avg # of iterations =  8.0

     total cpu time spent up to now is      161.3 secs

     total energy              =   -2834.40605021 Ry
     Harris-Foulkes estimate   =   -2834.40605021 Ry
     estimated scf accuracy    <          1.9E-09 Ry

     iteration # 16     ecut=    50.00 Ry     beta=0.70
     Davidson diagonalization with overlap
     ethr =  1.93E-13,  avg # of iterations =  7.0

     total cpu time spent up to now is      169.9 secs

     total energy              =   -2834.40605021 Ry
     Harris-Foulkes estimate   =   -2834.40605021 Ry
     estimated scf accuracy    <          2.5E-10 Ry

     iteration # 17     ecut=    50.00 Ry     beta=0.70
     Davidson diagonalization with overlap
     ethr =  1.00E-13,  avg # of iterations =  7.0

     total cpu time spent up to now is      176.2 secs

     End of self-consistent calculation

          k = 0.0000 0.0000 0.0000 ( 56233 PWs)   bands (ev):

    -8.0775  -7.0318  -7.0064  -6.9983  -6.9983  -6.9620  -6.9620  -6.9519
    -6.8701  -6.6126  -6.6126  -6.5876  -6.5653  -6.5653  -6.2998  -5.1670
    -5.1670  -5.1641  -5.1641  -5.1593  -5.1550  -5.1355  -5.1355  -5.1122
    -5.1122  -5.0886  -4.9554  -4.1290  -4.1253  -4.1253  -4.1231  -4.1231
    -4.1202  -4.1002  -4.1002  -4.0935  -4.0896  -4.0896  -4.0854  -4.0826
    -4.0826  -4.0804  -4.0680  -4.0604  -4.0604  -4.0068  -4.0068  -3.9710
    -3.9710  -3.9283  -3.9004  -3.7666  -3.7594  -3.7142  -3.7142  -3.7076
    -3.7076  -3.5839  -3.1820  -2.2825  -2.2825  -2.2721  -2.2721  -2.2585
    -2.2188  -1.6925  -1.6914  -1.6744  -1.6736  -1.6736  -1.6690  -1.6690
    -1.6565  -1.6565  -1.6562  -1.6562  -1.6320  -1.6308  -1.6065  -1.6065
    -1.5983  -1.5983  -1.5842  -1.5842  -1.5662  -1.4993  -1.4993  -1.4329
    -1.3722  -1.1033  -1.1013  -1.1013  -1.0991  -1.0933  -1.0933  -1.0896
    -1.0787  -1.0674  -1.0674  -1.0609  -1.0609  -1.0530  -1.0530  -1.0498
    -1.0498  -1.0278  -0.9994  -0.9531  -0.9531  -0.9348  -0.9348  -0.5651
    -0.0294   0.7854   0.7918   0.7918   0.7982   0.7982   0.8109   0.8300
     0.8300   0.8349   0.8349   0.9247   1.0192   1.2301   1.2362   1.2362
     1.2411   1.2411   1.2418   1.2454   1.2454   1.2475   1.2475   1.2482
     1.2501   1.2748   1.2748   1.2812   1.2901   1.2901   1.3067   1.3226
     1.3226   1.3407   1.3697   1.3697   1.3736   1.4034   1.4155   1.4155
     1.4195   1.4195   1.4343   1.4853   1.4853   1.5495   1.5495   1.7820
     1.8947   2.0744   2.0785   2.0785   2.1222   2.1651   2.1651   2.2582
     2.4145   3.3180   3.3187   3.3187   3.3236   3.3236   3.3240   3.3325
     3.3399   3.3474   3.3474   3.3540   3.3540   3.3877   3.3877   3.3899
     3.3899   3.4138   3.4360   3.4727   3.4727   3.4869   3.4869   3.7783
     3.8074   4.1277   4.1277   4.1289   4.1289   4.2597   4.2917   4.6777
     4.6777   4.6779   4.6787   4.6787   4.6812   4.6814   4.6824   4.6824
     4.6865   4.6865   4.6894   4.7091   4.7161   4.7161   4.7207   4.7207
     4.7238   4.7238   4.7276   4.7316   4.7316   4.7405   4.7474   4.7474
     4.7497   4.7543   4.7543   4.7577   4.7889   4.8229   4.8229   4.8354
     4.8354   5.0105   5.1005   5.1392   5.1392   5.1413   5.1501   5.1501
     5.1645   5.1647   5.1647   5.1735   5.1735   5.1745   5.1745   5.2054
     5.2054   5.2084   5.2113   5.2113   5.2817   5.2817   5.3941   5.4297
     5.4297   5.4894   5.6372   6.5668   6.5668   6.5684   6.5684   6.5805
     6.5810   6.6101   6.6101   6.6209   6.6209   6.6778   6.8026   7.0806
     7.0819   7.0819   7.0820   7.0825   7.0825   7.0889   7.0889   7.0909
     7.0941   7.0941   7.0973   7.1024   7.1024   7.1047   7.1047   7.1133
     7.1202   7.1240   7.1240   7.1312   7.1312   7.1385   7.1396   7.1469
     7.1616   7.1700   7.1700   7.1719   7.1773   7.1773   7.1922   7.1922
     7.2054   7.2146   7.2146   7.2192   7.2192   7.2406   7.2406   7.2491
     7.2790   7.3323   7.3323   7.3334   7.3334   7.3804   7.5077   7.5194
     7.5282   7.5282   7.5353   7.5353   7.5432   7.5432   7.5470   7.5539
     7.5591   7.5591   7.5685   7.5685   7.5692   7.5851   7.5851   7.5980
     7.6368   7.6368   7.6628   7.6628   7.6669   7.6890   7.7648   7.8308
     7.8308   7.8350   7.8350   7.8370   7.8388   7.9202   7.9605   7.9605
     8.1116   8.1116   8.1213   8.6788   8.6906   8.6996   8.6996   8.7046
     8.7046   8.7108   8.7208   8.8289   8.8331   8.8331   8.8349   8.8349
     8.8430   8.8541   8.8541   8.8561   8.8655   8.8661   8.8661   8.8679
     8.8679   8.8692   8.8922   8.8922   8.9215   8.9750   8.9750   8.9802
     8.9802   9.1247   9.1248   9.1253   9.1286   9.1286   9.1302   9.1302
     9.1408   9.1425   9.1437   9.1437   9.1509   9.1509   9.1678   9.1678
     9.1691   9.1725   9.1725   9.1902   9.1911   9.2943   9.2943   9.3465
     9.3465   9.3882   9.3925   9.6637   9.6753   9.6781   9.6781   9.6792
     9.6928   9.6928   9.7006   9.7006   9.7067   9.7067   9.7144   9.7471
     9.7624   9.7624   9.7737   9.7737   9.7941   9.8162   9.9627   9.9627
    10.0351  10.0351  10.0962  10.3381  10.3401  10.3401  10.3479  10.3479
    10.3547  10.3866  10.4099  10.4099  10.4684  10.5110  10.5110  10.5593
    10.5593  10.6175  10.6175  10.6678  10.7985  10.9005  10.9005  10.9224
    10.9224  10.9266  10.9298  10.9327  10.9327  11.0229  11.0229  11.0418
    11.1804  11.1804  11.1914  11.1914  11.2810  11.5916  11.5976  11.5976
    11.6205  11.6253  11.6301  11.6301  11.7662  11.7662  11.7938  11.7938
    11.9252  12.2569  12.2569  12.2636  12.2636  12.2719  12.2789  12.2921
    12.2921  12.3087  12.3087  12.3106  12.4350  12.4350  12.8114  12.8114
    13.1928  13.8012  13.8012  13.9767  17.8542  17.8542  17.8557  17.8557
    17.8716  17.8899  18.4139  18.4139  18.4321  18.4385  18.4385  18.4623
    19.0283  19.0286  19.0286  19.0352  19.0352  19.0391  19.0612  19.0612
    19.0732  19.0732  19.1054  19.1166  19.2999  19.3003  19.3003  19.7687
    19.7691  19.7691  19.7726  19.7726  19.7754  19.7957  19.7968  19.7968
    19.7986  19.7986  19.8000  19.8038  19.8061  19.8061  19.8092  19.8092
    19.8142  19.8703  19.8703  19.8903  19.8988  19.8988  19.9083  19.9531
    19.9531  19.9651  19.9651  20.0293  20.1299  20.9206  20.9206  20.9271
    20.9271  20.9278  20.9378  20.9378  20.9411  20.9411  20.9489  20.9521
    20.9530  20.9712  20.9966  20.9966  21.0023  21.0023  21.0039  21.0039
    21.0142  21.0142  21.0142  21.0200  21.0200  21.0269  21.0271  21.0397
    21.0397  21.0446  21.0495  21.0495  21.0497  21.0497  21.0956  21.1026
    21.1026  21.1054  21.1821  21.1845  21.1845  21.5243  21.5279  21.5279

     highest occupied, lowest unoccupied level (ev):    13.8012   13.9767

!    total energy              =   -2834.40605021 Ry
     Harris-Foulkes estimate   =   -2834.40605021 Ry
     estimated scf accuracy    <          5.7E-11 Ry

     The total energy is the sum of the following terms:

     one-electron contribution =    1017.90484063 Ry
     hartree contribution      =     239.71073620 Ry
     xc contribution           =    -890.66924058 Ry
     ewald contribution        =   -3201.35238646 Ry

     convergence has been achieved in  17 iterations

     Forces acting on atoms (cartesian axes, Ry/au):

     atom    1 type  2   force =     0.12368293   -0.12368295   -0.12368293
     atom    2 type  2   force =    -0.12356492    0.12356494    0.12356491
     atom    3 type  1   force =    -0.00496302    0.00496303   -0.07155996
     atom    4 type  1   force =    -0.01106892    0.01106892    0.01466184
     atom    5 type  1   force =     0.00498422   -0.00498422   -0.00726761
     atom    6 type  1   force =    -0.00541098    0.00541097    0.00795590
     atom    7 type  1   force =     0.00558959   -0.00558961   -0.00807698
     atom    8 type  1   force =    -0.00510676    0.00510677    0.00723358
     atom    9 type  1   force =     0.01104557   -0.01104557   -0.01468206
     atom   10 type  1   force =     0.00483147   -0.00483147    0.07146248
     atom   11 type  1   force =     0.07155995    0.00496302    0.00496302
     atom   12 type  1   force =    -0.01466185    0.01106891    0.01106893
     atom   13 type  1   force =     0.00646796   -0.01113170   -0.00646795
     atom   14 type  1   force =    -0.00501624    0.00556238    0.00501624
     atom   15 type  1   force =     0.00304199   -0.00370778   -0.00356006
     atom   16 type  1   force =    -0.00287855    0.00301536    0.00319921
     atom   17 type  1   force =     0.00239512   -0.00276815   -0.00338360
     atom   18 type  1   force =    -0.00076015    0.00935081    0.00646021
     atom   19 type  1   force =     0.00935451   -0.01810050   -0.00453258
     atom   20 type  1   force =    -0.00457489    0.01809257    0.00926330
     atom   21 type  1   force =     0.00726759   -0.00498423   -0.00498420
     atom   22 type  1   force =    -0.00795590    0.00541099    0.00541099
     atom   23 type  1   force =     0.00356006   -0.00370779   -0.00304198
     atom   24 type  1   force =    -0.00319921    0.00301537    0.00287856
     atom   25 type  1   force =     0.00211518   -0.00257289   -0.00211518
     atom   26 type  1   force =    -0.00238785    0.00480368    0.00238786
     atom   27 type  1   force =     0.00344044   -0.00522551   -0.00126141
     atom   28 type  1   force =    -0.00129350    0.00518563    0.00327511
     atom   29 type  1   force =     0.00635538   -0.00938816   -0.00079014
     atom   30 type  1   force =    -0.00337986    0.00295775    0.00237980
     atom   31 type  1   force =     0.00807695   -0.00558960   -0.00558961
     atom   32 type  1   force =    -0.00723357    0.00510677    0.00510676
     atom   33 type  1   force =     0.00338361   -0.00276816   -0.00239511
     atom   34 type  1   force =    -0.00646020    0.00935081    0.00076014
     atom   35 type  1   force =     0.00126142   -0.00522551   -0.00344044
     atom   36 type  1   force =    -0.00327512    0.00518562    0.00129350
     atom   37 type  1   force =     0.00239160   -0.00461851   -0.00239160
     atom   38 type  1   force =    -0.00213523    0.00250494    0.00213524
     atom   39 type  1   force =     0.00329786   -0.00298103   -0.00287749
     atom   40 type  1   force =    -0.00366648    0.00369521    0.00291282
     atom   41 type  1   force =     0.01468206   -0.01104558   -0.01104557
     atom   42 type  1   force =    -0.07146248   -0.00483145   -0.00483146
     atom   43 type  1   force =     0.00453259   -0.01810051   -0.00935450
     atom   44 type  1   force =    -0.00926330    0.01809257    0.00457488
     atom   45 type  1   force =     0.00079014   -0.00938815   -0.00635538
     atom   46 type  1   force =    -0.00237981    0.00295775    0.00337984
     atom   47 type  1   force =     0.00287749   -0.00298102   -0.00329786
     atom   48 type  1   force =    -0.00291281    0.00369521    0.00366648
     atom   49 type  1   force =     0.00499545   -0.00559103   -0.00499546
     atom   50 type  1   force =    -0.00642626    0.01121590    0.00642627
     atom   51 type  1   force =    -0.00496304   -0.07155996    0.00496303
     atom   52 type  1   force =    -0.01106891    0.01466186    0.01106893
     atom   53 type  1   force =     0.01113169   -0.00646794   -0.00646795
     atom   54 type  1   force =    -0.00556238    0.00501624    0.00501625
     atom   55 type  1   force =     0.00370778   -0.00304200   -0.00356004
     atom   56 type  1   force =    -0.00301535    0.00287856    0.00319922
     atom   57 type  1   force =     0.00276813   -0.00239512   -0.00338359
     atom   58 type  1   force =    -0.00935081    0.00076014    0.00646020
     atom   59 type  1   force =     0.01810051   -0.00935453   -0.00453258
     atom   60 type  1   force =    -0.01809259    0.00457489    0.00926330
     atom   61 type  1   force =     0.00646794   -0.00646794   -0.01113170
     atom   62 type  1   force =    -0.00501623    0.00501624    0.00556237
     atom   63 type  1   force =     0.00510523   -0.00510525   -0.00510524
     atom   64 type  1   force =    -0.00389767    0.00389767    0.00389766
     atom   65 type  1   force =     0.00285133   -0.00285133   -0.00314103
     atom   66 type  1   force =    -0.00314615    0.00314615    0.00345033
     atom   67 type  1   force =     0.00194707   -0.00194708   -0.00463788
     atom   68 type  1   force =    -0.00301549    0.00301548    0.00376360
     atom   69 type  1   force =     0.00370999   -0.00370998   -0.00812852
     atom   70 type  1   force =    -0.00159660    0.00159659    0.00319889
     atom   71 type  1   force =     0.00356006   -0.00304200   -0.00370776
     atom   72 type  1   force =    -0.00319920    0.00287856    0.00301536
     atom   73 type  1   force =     0.00314103   -0.00285133   -0.00285133
     atom   74 type  1   force =    -0.00345035    0.00314615    0.00314615
     atom   75 type  1   force =     0.00260221   -0.00277527   -0.00260222
     atom   76 type  1   force =    -0.00248509    0.00275997    0.00248509
     atom   77 type  1   force =     0.00200167   -0.00269454   -0.00273217
     atom   78 type  1   force =    -0.00159185    0.00178805    0.00205804
     atom   79 type  1   force =     0.00155412   -0.00218064   -0.00276604
     atom   80 type  1   force =    -0.00145831    0.00174474    0.00227584
     atom   81 type  1   force =     0.00338360   -0.00239512   -0.00276815
     atom   82 type  1   force =    -0.00646021    0.00076015    0.00935080
     atom   83 type  1   force =     0.00463788   -0.00194706   -0.00194706
     atom   84 type  1   force =    -0.00376361    0.00301549    0.00301550
     atom   85 type  1   force =     0.00273216   -0.00269454   -0.00200165
     atom   86 type  1   force =    -0.00205803    0.00178805    0.00159184
     atom   87 type  1   force =     0.00161232   -0.00213769   -0.00161233
     atom   88 type  1   force =    -0.00148083    0.00170828    0.00148083
     atom   89 type  1   force =     0.00148766   -0.00227839   -0.00155513
     atom   90 type  1   force =    -0.00137424    0.00271449    0.00221821
     atom   91 type  1   force =     0.00453259   -0.00935451   -0.01810050
     atom   92 type  1   force =    -0.00926329    0.00457490    0.01809258
     atom   93 type  1   force =     0.00812848   -0.00370999   -0.00371000
     atom   94 type  1   force =    -0.00319891    0.00159659    0.00159659
     atom   95 type  1   force =     0.00276604   -0.00218064   -0.00155413
     atom   96 type  1   force =    -0.00227584    0.00174473    0.00145832
     atom   97 type  1   force =     0.00155512   -0.00227840   -0.00148766
     atom   98 type  1   force =    -0.00221821    0.00271450    0.00137423
     atom   99 type  1   force =     0.00177905   -0.00331209   -0.00177905
     atom  100 type  1   force =    -0.00370135    0.00831013    0.00370135
     atom  101 type  1   force =     0.00498422   -0.00726761   -0.00498420
     atom  102 type  1   force =    -0.00541096    0.00795589    0.00541095
     atom  103 type  1   force =     0.00370778   -0.00356007   -0.00304200
     atom  104 type  1   force =    -0.00301535    0.00319920    0.00287856
     atom  105 type  1   force =     0.00257293   -0.00211517   -0.00211521
     atom  106 type  1   force =    -0.00480369    0.00238787    0.00238786
     atom  107 type  1   force =     0.00522551   -0.00344043   -0.00126142
     atom  108 type  1   force =    -0.00518563    0.00129350    0.00327513
     atom  109 type  1   force =     0.00938819   -0.00635539   -0.00079015
     atom  110 type  1   force =    -0.00295773    0.00337983    0.00237983
     atom  111 type  1   force =     0.00304201   -0.00356006   -0.00370777
     atom  112 type  1   force =    -0.00287856    0.00319920    0.00301536
     atom  113 type  1   force =     0.00285133   -0.00314103   -0.00285133
     atom  114 type  1   force =    -0.00314615    0.00345036    0.00314616
     atom  115 type  1   force =     0.00277526   -0.00260222   -0.00260222
     atom  116 type  1   force =    -0.00275998    0.00248510    0.00248509
     atom  117 type  1   force =     0.00269453   -0.00200165   -0.00273215
     atom  118 type  1   force =    -0.00178804    0.00159183    0.00205803
     atom  119 type  1   force =     0.00218066   -0.00155413   -0.00276602
     atom  120 type  1   force =    -0.00174472    0.00145830    0.00227584
     atom  121 type  1   force =     0.00211519   -0.00211519   -0.00257290
     atom  122 type  1   force =    -0.00238786    0.00238784    0.00480368
     atom  123 type  1   force =     0.00260222   -0.00260221   -0.00277527
     atom  124 type  1   force =    -0.00248509    0.00248510    0.00275998
     atom  125 type  1   force =     0.00243548   -0.00243548   -0.00243548
     atom  126 type  1   force =    -0.00198795    0.00198794    0.00198795
     atom  127 type  1   force =     0.00178207   -0.00178210   -0.00195629
     atom  128 type  1   force =    -0.00146272    0.00146274    0.00184334
     atom  129 type  1   force =     0.00147259   -0.00147260   -0.00178147
     atom  130 type  1   force =    -0.00165287    0.00165288    0.00217415
     atom  131 type  1   force =     0.00126142   -0.00344045   -0.00522552
     atom  132 type  1   force =    -0.00327512    0.00129349    0.00518562
     atom  133 type  1   force =     0.00273216   -0.00200165   -0.00269453
     atom  134 type  1   force =    -0.00205802    0.00159184    0.00178804
     atom  135 type  1   force =     0.00195630   -0.00178207   -0.00178208
     atom  136 type  1   force =    -0.00184334    0.00146275    0.00146274
     atom  137 type  1   force =     0.00154579   -0.00172085   -0.00154579
     atom  138 type  1   force =    -0.00178010    0.00184916    0.00178011
     atom  139 type  1   force =     0.00172811   -0.00194269   -0.00178646
     atom  140 type  1   force =    -0.00227969    0.00268015    0.00264995
     atom  141 type  1   force =     0.00079014   -0.00635539   -0.00938818
     atom  142 type  1   force =    -0.00237981    0.00337984    0.00295775
     atom  143 type  1   force =     0.00276602   -0.00155412   -0.00218064
     atom  144 type  1   force =    -0.00227583    0.00145831    0.00174473
     atom  145 type  1   force =     0.00178149   -0.00147259   -0.00147258
     atom  146 type  1   force =    -0.00217417    0.00165287    0.00165286
     atom  147 type  1   force =     0.00178647   -0.00194270   -0.00172811
     atom  148 type  1   force =    -0.00264995    0.00268016    0.00227969
     atom  149 type  1   force =     0.00288543   -0.00378490   -0.00288544
     atom  150 type  1   force =    -0.00199384    0.00466515    0.00199384
     atom  151 type  1   force =     0.00558960   -0.00807698   -0.00558960
     atom  152 type  1   force =    -0.00510676    0.00723358    0.00510675
     atom  153 type  1   force =     0.00276813   -0.00338361   -0.00239513
     atom  154 type  1   force =    -0.00935082    0.00646021    0.00076015
     atom  155 type  1   force =     0.00522551   -0.00126143   -0.00344044
     atom  156 type  1   force =    -0.00518564    0.00327512    0.00129350
     atom  157 type  1   force =     0.00461852   -0.00239161   -0.00239160
     atom  158 type  1   force =    -0.00250493    0.00213525    0.00213524
     atom  159 type  1   force =     0.00298101   -0.00329786   -0.00287749
     atom  160 type  1   force =    -0.00369521    0.00366649    0.00291280
     atom  161 type  1   force =     0.00239513   -0.00338360   -0.00276814
     atom  162 type  1   force =    -0.00076014    0.00646020    0.00935081
     atom  163 type  1   force =     0.00194707   -0.00463788   -0.00194707
     atom  164 type  1   force =    -0.00301550    0.00376359    0.00301551
     atom  165 type  1   force =     0.00269453   -0.00273216   -0.00200165
     atom  166 type  1   force =    -0.00178804    0.00205802    0.00159185
     atom  167 type  1   force =     0.00213769   -0.00161233   -0.00161233
     atom  168 type  1   force =    -0.00170830    0.00148082    0.00148081
     atom  169 type  1   force =     0.00227836   -0.00148768   -0.00155514
     atom  170 type  1   force =    -0.00271450    0.00137423    0.00221822
     atom  171 type  1   force =     0.00344044   -0.00126141   -0.00522551
     atom  172 type  1   force =    -0.00129351    0.00327512    0.00518561
     atom  173 type  1   force =     0.00200165   -0.00273217   -0.00269453
     atom  174 type  1   force =    -0.00159183    0.00205804    0.00178804
     atom  175 type  1   force =     0.00178208   -0.00195631   -0.00178207
     atom  176 type  1   force =    -0.00146273    0.00184335    0.00146273
     atom  177 type  1   force =     0.00172085   -0.00154577   -0.00154580
     atom  178 type  1   force =    -0.00184915    0.00178011    0.00178011
     atom  179 type  1   force =     0.00194270   -0.00172812   -0.00178646
     atom  180 type  1   force =    -0.00268016    0.00227970    0.00264995
     atom  181 type  1   force =     0.00239157   -0.00239159   -0.00461851
     atom  182 type  1   force =    -0.00213524    0.00213524    0.00250494
     atom  183 type  1   force =     0.00161234   -0.00161235   -0.00213769
     atom  184 type  1   force =    -0.00148081    0.00148081    0.00170828
     atom  185 type  1   force =     0.00154579   -0.00154580   -0.00172084
     atom  186 type  1   force =    -0.00178009    0.00178011    0.00184915
     atom  187 type  1   force =     0.00189406   -0.00189406   -0.00189406
     atom  188 type  1   force =    -0.00241959    0.00241959    0.00241958
     atom  189 type  1   force =     0.00253241   -0.00253242   -0.00266525
     atom  190 type  1   force =    -0.00259361    0.00259360    0.00267866
     atom  191 type  1   force =     0.00287748   -0.00329786   -0.00298103
     atom  192 type  1   force =    -0.00291281    0.00366648    0.00369521
     atom  193 type  1   force =     0.00155513   -0.00148769   -0.00227839
     atom  194 type  1   force =    -0.00221821    0.00137423    0.00271451
     atom  195 type  1   force =     0.00178645   -0.00172811   -0.00194271
     atom  196 type  1   force =    -0.00264995    0.00227969    0.00268016
     atom  197 type  1   force =     0.00266525   -0.00253242   -0.00253242
     atom  198 type  1   force =    -0.00267866    0.00259360    0.00259362
     atom  199 type  1   force =     0.00303283   -0.00353777   -0.00303282
     atom  200 type  1   force =    -0.00277351    0.00325787    0.00277352
     atom  201 type  1   force =     0.01104557   -0.01468208   -0.01104556
     atom  202 type  1   force =     0.00483145    0.07146250   -0.00483145
     atom  203 type  1   force =     0.01810050   -0.00453258   -0.00935451
     atom  204 type  1   force =    -0.01809257    0.00926330    0.00457489
     atom  205 type  1   force =     0.00938816   -0.00079012   -0.00635539
     atom  206 type  1   force =    -0.00295775    0.00237982    0.00337984
     atom  207 type  1   force =     0.00298102   -0.00287750   -0.00329787
     atom  208 type  1   force =    -0.00369522    0.00291281    0.00366648
     atom  209 type  1   force =     0.00559105   -0.00499546   -0.00499547
     atom  210 type  1   force =    -0.01121590    0.00642627    0.00642629
     atom  211 type  1   force =     0.00935452   -0.00453259   -0.01810050
     atom  212 type  1   force =    -0.00457490    0.00926329    0.01809256
     atom  213 type  1   force =     0.00370999   -0.00812851   -0.00370998
     atom  214 type  1   force =    -0.00159658    0.00319890    0.00159658
     atom  215 type  1   force =     0.00218064   -0.00276603   -0.00155416
     atom  216 type  1   force =    -0.00174473    0.00227584    0.00145829
     atom  217 type  1   force =     0.00227838   -0.00155514   -0.00148766
     atom  218 type  1   force =    -0.00271450    0.00221821    0.00137421
     atom  219 type  1   force =     0.00331210   -0.00177904   -0.00177903
     atom  220 type  1   force =    -0.00831014    0.00370133    0.00370136
     atom  221 type  1   force =     0.00635537   -0.00079011   -0.00938815
     atom  222 type  1   force =    -0.00337985    0.00237982    0.00295777
     atom  223 type  1   force =     0.00155413   -0.00276602   -0.00218064
     atom  224 type  1   force =    -0.00145829    0.00227586    0.00174473
     atom  225 type  1   force =     0.00147259   -0.00178147   -0.00147259
     atom  226 type  1   force =    -0.00165287    0.00217415    0.00165285
     atom  227 type  1   force =     0.00194270   -0.00178647   -0.00172813
     atom  228 type  1   force =    -0.00268015    0.00264995    0.00227969
     atom  229 type  1   force =     0.00378489   -0.00288544   -0.00288543
     atom  230 type  1   force =    -0.00466515    0.00199384    0.00199385
     atom  231 type  1   force =     0.00329787   -0.00287749   -0.00298103
     atom  232 type  1   force =    -0.00366647    0.00291282    0.00369520
     atom  233 type  1   force =     0.00148766   -0.00155513   -0.00227839
     atom  234 type  1   force =    -0.00137422    0.00221821    0.00271450
     atom  235 type  1   force =     0.00172811   -0.00178645   -0.00194270
     atom  236 type  1   force =    -0.00227970    0.00264995    0.00268017
     atom  237 type  1   force =     0.00253243   -0.00266526   -0.00253243
     atom  238 type  1   force =    -0.00259361    0.00267866    0.00259361
     atom  239 type  1   force =     0.00353778   -0.00303284   -0.00303283
     atom  240 type  1   force =    -0.00325786    0.00277353    0.00277352
     atom  241 type  1   force =     0.00499546   -0.00499546   -0.00559103
     atom  242 type  1   force =    -0.00642626    0.00642626    0.01121589
     atom  243 type  1   force =     0.00177905   -0.00177904   -0.00331211
     atom  244 type  1   force =    -0.00370136    0.00370135    0.00831015
     atom  245 type  1   force =     0.00288543   -0.00288544   -0.00378490
     atom  246 type  1   force =    -0.00199385    0.00199385    0.00466514
     atom  247 type  1   force =     0.00303284   -0.00303284   -0.00353777
     atom  248 type  1   force =    -0.00277352    0.00277351    0.00325785
     atom  249 type  1   force =     0.00397993   -0.00397991   -0.00397992
     atom  250 type  1   force =    -0.00518967    0.00518968    0.00518968

     Total force =     0.374075     Total SCF correction =     0.000026


     Computing stress (Cartesian axis) and pressure

          total   stress  (Ry/bohr**3)                   (kbar)     P=  -50.72
  -0.00034479   0.00001068   0.00001068        -50.72      1.57      1.57
   0.00001068  -0.00034479  -0.00001068          1.57    -50.72     -1.57
   0.00001068  -0.00001068  -0.00034479          1.57     -1.57    -50.72


     BFGS Geometry Optimization

     number of scf cycles    =   1
     number of bfgs steps    =   0

     enthalpy new            =   -2834.4060502132 Ry

     new trust radius        =       0.2142251299 bohr
     new conv_thr            =            1.0E-10 Ry

     new unit-cell volume =   9171.93641 a.u.^3 (  1359.14073 Ang^3 )
     density =      3.66570 g/cm^3

CELL_PARAMETERS (alat= 33.51712756)
  -0.495556566  -0.000267085   0.495556566
   0.000267085   0.495556566   0.495556566
  -0.495556566   0.495556566  -0.000267084

ATOMIC_POSITIONS (crystal)
B       -0.003690141  -0.003690142  -0.003690142
B        0.053686619   0.053686621   0.053686621
C       -0.002135027  -0.002135027   0.202431175
C        0.050437443   0.050437443   0.250223050
C       -0.000216833  -0.000216833   0.399919419
C        0.050237368   0.050237368   0.450085510
C       -0.000240980  -0.000240981   0.599907444
C        0.050215817   0.050215818   0.650088908
C       -0.000438047  -0.000438047   0.799778947
C        0.052132118   0.052132119   0.847579583
C       -0.002135026   0.202431174  -0.002135026
C        0.050437444   0.250223050   0.050437443
C       -0.000053830   0.199667880   0.199667880
C        0.050133367   0.250165956   0.250165956
C       -0.000086352   0.199873920   0.399904833
C        0.050091368   0.250099532   0.450080398
C       -0.000089822   0.199887919   0.599946903
C        0.049936437   0.250449050   0.650108922
C        0.000125709   0.199603827   0.799316098
C        0.049873068   0.250679682   0.850399919
C       -0.000216831   0.399919419  -0.000216833
C        0.050237368   0.450085511   0.050237368
C       -0.000086352   0.399904833   0.199873919
C        0.050091368   0.450080398   0.250099532
C       -0.000049451   0.399923236   0.399923237
C        0.049999165   0.450143320   0.450143320
C        0.000015624   0.399909107   0.599779082
C        0.049981591   0.450213838   0.650095593
C        0.000066910   0.399885941   0.799553858
C        0.050083596   0.450058409   0.850118083
C       -0.000240980   0.599907442  -0.000240980
C        0.050215817   0.650088909   0.050215818
C       -0.000089822   0.599946903   0.199887918
C        0.049936436   0.650108922   0.250449050
C        0.000015623   0.599779082   0.399909107
C        0.049981592   0.650095593   0.450213838
C       -0.000004913   0.599862205   0.599862204
C        0.050052676   0.650074736   0.650074736
C       -0.000095304   0.599923602   0.799898517
C        0.050086048   0.650087763   0.850132734
C       -0.000438046   0.799778946  -0.000438047
C        0.052132118   0.847579584   0.052132119
C        0.000125709   0.799316098   0.199603826
C        0.049873068   0.850399920   0.250679682
C        0.000066910   0.799553858   0.399885942
C        0.050083596   0.850118082   0.450058409
C       -0.000095304   0.799898518   0.599923602
C        0.050086048   0.850132735   0.650087762
C       -0.000131272   0.799833189   0.799833189
C        0.050048829   0.850334632   0.850334632
C        0.202431176  -0.002135027  -0.002135026
C        0.250223050   0.050437444   0.050437443
C        0.199667880  -0.000053829   0.199667881
C        0.250165957   0.050133368   0.250165956
C        0.199873920  -0.000086352   0.399904833
C        0.250099531   0.050091369   0.450080397
C        0.199887920  -0.000089822   0.599946903
C        0.250449050   0.049936436   0.650108922
C        0.199603828   0.000125709   0.799316097
C        0.250679682   0.049873068   0.850399920
C        0.199667880   0.199667880  -0.000053829
C        0.250165956   0.250165956   0.050133368
C        0.199847683   0.199847682   0.199847683
C        0.250116289   0.250116289   0.250116289
C        0.199906286   0.199906286   0.399923572
C        0.250102942   0.250102942   0.450084792
C        0.199861627   0.199861626   0.600022190
C        0.250112289   0.250112289   0.650067648
C        0.199757481   0.199757482   0.800021140
C        0.250095441   0.250095440   0.849999830
C        0.199873920   0.399904834  -0.000086353
C        0.250099531   0.450080398   0.050091368
C        0.199906286   0.399923573   0.199906286
C        0.250102943   0.450084791   0.250102943
C        0.199927525   0.399917198   0.399917199
C        0.250065943   0.450082345   0.450082345
C        0.199939156   0.399897812   0.599941402
C        0.250055549   0.450067256   0.650039438
C        0.199936166   0.399898781   0.799971098
C        0.250059355   0.450076447   0.850027664
C        0.199887919   0.599946903  -0.000089822
C        0.250449050   0.650108922   0.049936437
C        0.199861627   0.600022190   0.199861627
C        0.250112289   0.650067648   0.250112289
C        0.199939157   0.599941402   0.399897812
C        0.250055549   0.650039438   0.450067256
C        0.199967570   0.599936221   0.599936221
C        0.250037395   0.650050967   0.650050967
C        0.199977194   0.599930010   0.799934036
C        0.250026194   0.650106169   0.850055808
C        0.199603827   0.799316098   0.000125709
C        0.250679682   0.850399920   0.049873068
C        0.199757483   0.800021138   0.199757483
C        0.250095441   0.849999829   0.250095441
C        0.199936166   0.799971097   0.399898781
C        0.250059355   0.850027664   0.450076446
C        0.199977194   0.799934036   0.599930010
C        0.250026194   0.850055808   0.650106169
C        0.199992660   0.799901182   0.799901182
C        0.249972926   0.850247937   0.850247937
C        0.399919420  -0.000216832  -0.000216833
C        0.450085509   0.050237368   0.050237368
C        0.399904833  -0.000086352   0.199873920
C        0.450080398   0.050091369   0.250099531
C        0.399923234  -0.000049451   0.399923237
C        0.450143320   0.049999166   0.450143321
C        0.399909106   0.000015624   0.599779083
C        0.450213839   0.049981592   0.650095593
C        0.399885941   0.000066911   0.799553857
C        0.450058410   0.050083597   0.850118081
C        0.399904833   0.199873921  -0.000086353
C        0.450080398   0.250099531   0.050091368
C        0.399923573   0.199906286   0.199906286
C        0.450084791   0.250102943   0.250102943
C        0.399917199   0.199927525   0.399917199
C        0.450082345   0.250065943   0.450082346
C        0.399897813   0.199939157   0.599941402
C        0.450067256   0.250055548   0.650039438
C        0.399898782   0.199936167   0.799971096
C        0.450076446   0.250059355   0.850027663
C        0.399923236   0.399923236  -0.000049452
C        0.450143321   0.450143319   0.049999166
C        0.399917198   0.399917199   0.199927525
C        0.450082345   0.450082345   0.250065943
C        0.399927336   0.399927336   0.399927336
C        0.450059312   0.450059311   0.450059311
C        0.399941634   0.399941632   0.599952028
C        0.450054996   0.450054998   0.650032286
C        0.399946849   0.399946849   0.799965280
C        0.450064867   0.450064867   0.850033762
C        0.399909106   0.599779082   0.000015623
C        0.450213838   0.650095593   0.049981591
C        0.399897812   0.599941403   0.199939157
C        0.450067256   0.650039438   0.250055548
C        0.399941633   0.599952029   0.399941633
C        0.450054996   0.650032286   0.450054997
C        0.399959104   0.599948658   0.599948658
C        0.450051050   0.650055171   0.650055170
C        0.399953102   0.599940298   0.799943780
C        0.450067114   0.650091010   0.850068917
C        0.399885941   0.799553857   0.000066911
C        0.450058410   0.850118082   0.050083596
C        0.399898782   0.799971097   0.199936167
C        0.450076446   0.850027664   0.250059355
C        0.399946849   0.799965281   0.399946848
C        0.450064867   0.850033761   0.450064867
C        0.399953102   0.799943780   0.599940298
C        0.450067114   0.850068917   0.650091011
C        0.399940748   0.799887075   0.799887076
C        0.449979787   0.850139187   0.850139187
C        0.599907443  -0.000240981  -0.000240981
C        0.650088908   0.050215817   0.050215818
C        0.599946903  -0.000089823   0.199887920
C        0.650108922   0.049936437   0.250449050
C        0.599779082   0.000015623   0.399909106
C        0.650095594   0.049981591   0.450213838
C        0.599862204  -0.000004914   0.599862204
C        0.650074735   0.050052676   0.650074736
C        0.599923602  -0.000095305   0.799898518
C        0.650087762   0.050086048   0.850132735
C        0.599946902   0.199887920  -0.000089822
C        0.650108922   0.250449050   0.049936437
C        0.600022190   0.199861626   0.199861627
C        0.650067649   0.250112289   0.250112288
C        0.599941402   0.199939157   0.399897812
C        0.650039439   0.250055549   0.450067256
C        0.599936221   0.199967570   0.599936221
C        0.650050967   0.250037394   0.650050968
C        0.599930011   0.199977192   0.799934037
C        0.650106170   0.250026194   0.850055808
C        0.599779082   0.399909107   0.000015624
C        0.650095593   0.450213837   0.049981592
C        0.599941403   0.399897812   0.199939157
C        0.650039437   0.450067257   0.250055548
C        0.599952029   0.399941633   0.399941632
C        0.650032285   0.450054997   0.450054997
C        0.599948657   0.399959104   0.599948658
C        0.650055170   0.450051050   0.650055170
C        0.599940298   0.399953102   0.799943779
C        0.650091011   0.450067115   0.850068917
C        0.599862205   0.599862204  -0.000004912
C        0.650074736   0.650074736   0.050052676
C        0.599936221   0.599936221   0.199967569
C        0.650050967   0.650050967   0.250037394
C        0.599948658   0.599948658   0.399959103
C        0.650055170   0.650055171   0.450051050
C        0.599943490   0.599943490   0.599943490
C        0.650072189   0.650072189   0.650072190
C        0.599920481   0.599920481   0.799928407
C        0.650079919   0.650079919   0.850074844
C        0.599923602   0.799898517  -0.000095304
C        0.650087762   0.850132735   0.050086048
C        0.599930011   0.799934035   0.199977193
C        0.650106169   0.850055808   0.250026193
C        0.599940298   0.799943779   0.399953103
C        0.650091011   0.850068917   0.450067114
C        0.599920481   0.799928407   0.599920481
C        0.650079920   0.850074844   0.650079919
C        0.599924579   0.799894449   0.799894449
C        0.650068298   0.850097200   0.850097200
C        0.799778947  -0.000438047  -0.000438048
C        0.847579584   0.052132119   0.052132119
C        0.799316098   0.000125709   0.199603827
C        0.850399920   0.049873069   0.250679682
C        0.799553857   0.000066911   0.399885942
C        0.850118082   0.050083597   0.450058410
C        0.799898518  -0.000095305   0.599923602
C        0.850132735   0.050086048   0.650087763
C        0.799833188  -0.000131273   0.799833189
C        0.850334632   0.050048831   0.850334631
C        0.799316098   0.199603827   0.000125709
C        0.850399920   0.250679681   0.049873069
C        0.800021140   0.199757482   0.199757481
C        0.849999829   0.250095441   0.250095441
C        0.799971096   0.199936165   0.399898783
C        0.850027663   0.250059355   0.450076447
C        0.799934037   0.199977193   0.599930010
C        0.850055807   0.250026193   0.650106170
C        0.799901182   0.199992661   0.799901182
C        0.850247938   0.249972926   0.850247936
C        0.799553858   0.399885942   0.000066911
C        0.850118083   0.450058410   0.050083596
C        0.799971097   0.399898782   0.199936166
C        0.850027662   0.450076447   0.250059355
C        0.799965280   0.399946849   0.399946849
C        0.850033761   0.450064866   0.450064867
C        0.799943779   0.399953102   0.599940298
C        0.850068917   0.450067114   0.650091010
C        0.799887076   0.399940747   0.799887076
C        0.850139188   0.449979788   0.850139187
C        0.799898517   0.599923602  -0.000095304
C        0.850132734   0.650087762   0.050086048
C        0.799934036   0.599930010   0.199977194
C        0.850055807   0.650106169   0.250026194
C        0.799943779   0.599940298   0.399953103
C        0.850068917   0.650091011   0.450067114
C        0.799928406   0.599920481   0.599920481
C        0.850074844   0.650079919   0.650079919
C        0.799894449   0.599924579   0.799894448
C        0.850097200   0.650068299   0.850097200
C        0.799833189   0.799833189  -0.000131273
C        0.850334632   0.850334632   0.050048830
C        0.799901181   0.799901182   0.199992661
C        0.850247937   0.850247937   0.249972926
C        0.799887076   0.799887075   0.399940747
C        0.850139187   0.850139187   0.449979788
C        0.799894449   0.799894449   0.599924579
C        0.850097200   0.850097200   0.650068299
C        0.799881257   0.799881257   0.799881257
C        0.850154836   0.850154837   0.850154836



     Writing output data file b.save
     NEW-OLD atomic charge density approx. for the potential
     extrapolated charge  971.78712, renormalised to  998.00000

     total cpu time spent up to now is      182.8 secs

     per-process dynamical memory:   118.5 Mb

     Self-consistent Calculation

     iteration #  1     ecut=    50.00 Ry     beta=0.70
     Davidson diagonalization with overlap
     c_bands:  1 eigenvalues not converged
     ethr =  1.00E-06,  avg # of iterations = 20.0

     total cpu time spent up to now is      202.7 secs

     total energy              =   -2834.31798133 Ry
     Harris-Foulkes estimate   =   -2816.32197785 Ry
     estimated scf accuracy    <       0.39753192 Ry

     iteration #  2     ecut=    50.00 Ry     beta=0.70
     Davidson diagonalization with overlap
     ethr =  3.98E-05,  avg # of iterations =  6.0

     total cpu time spent up to now is      211.8 secs

     total energy              =   -2834.45086084 Ry
     Harris-Foulkes estimate   =   -2834.45489618 Ry
     estimated scf accuracy    <       0.01633104 Ry

     iteration #  3     ecut=    50.00 Ry     beta=0.70
     Davidson diagonalization with overlap
     ethr =  1.64E-06,  avg # of iterations = 13.0

     total cpu time spent up to now is      223.6 secs

     total energy              =   -2834.45002915 Ry
     Harris-Foulkes estimate   =   -2834.45173669 Ry
     estimated scf accuracy    <       0.00537388 Ry

     iteration #  4     ecut=    50.00 Ry     beta=0.70
     Davidson diagonalization with overlap
     ethr =  5.38E-07,  avg # of iterations =  7.0

     total cpu time spent up to now is      231.1 secs

     total energy              =   -2834.45035632 Ry
     Harris-Foulkes estimate   =   -2834.45053127 Ry
     estimated scf accuracy    <       0.00097491 Ry

     iteration #  5     ecut=    50.00 Ry     beta=0.70
     Davidson diagonalization with overlap
     ethr =  9.77E-08,  avg # of iterations =  9.0

     total cpu time spent up to now is      240.0 secs

     total energy              =   -2834.45035299 Ry
     Harris-Foulkes estimate   =   -2834.45042677 Ry
     estimated scf accuracy    <       0.00025047 Ry

     iteration #  6     ecut=    50.00 Ry     beta=0.70
     Davidson diagonalization with overlap
     ethr =  2.51E-08,  avg # of iterations =  7.0

     total cpu time spent up to now is      248.5 secs

     total energy              =   -2834.45037932 Ry
     Harris-Foulkes estimate   =   -2834.45038404 Ry
     estimated scf accuracy    <       0.00002233 Ry

     iteration #  7     ecut=    50.00 Ry     beta=0.70
     Davidson diagonalization with overlap
     ethr =  2.24E-09,  avg # of iterations =  8.0

     total cpu time spent up to now is      258.0 secs

     total energy              =   -2834.45038090 Ry
     Harris-Foulkes estimate   =   -2834.45038233 Ry
     estimated scf accuracy    <       0.00000520 Ry

     iteration #  8     ecut=    50.00 Ry     beta=0.70
     Davidson diagonalization with overlap
     ethr =  5.21E-10,  avg # of iterations =  9.0

     total cpu time spent up to now is      268.4 secs

     total energy              =   -2834.45038119 Ry
     Harris-Foulkes estimate   =   -2834.45038173 Ry
     estimated scf accuracy    <       0.00000194 Ry

     iteration #  9     ecut=    50.00 Ry     beta=0.70
     Davidson diagonalization with overlap
     ethr =  1.95E-10,  avg # of iterations =  9.0

     total cpu time spent up to now is      277.1 secs

     total energy              =   -2834.45038128 Ry
     Harris-Foulkes estimate   =   -2834.45038135 Ry
     estimated scf accuracy    <       0.00000032 Ry

     iteration # 10     ecut=    50.00 Ry     beta=0.70
     Davidson diagonalization with overlap
     ethr =  3.21E-11,  avg # of iterations = 10.0

     total cpu time spent up to now is      289.4 secs

     total energy              =   -2834.45038133 Ry
     Harris-Foulkes estimate   =   -2834.45038134 Ry
     estimated scf accuracy    <       0.00000003 Ry

     iteration # 11     ecut=    50.00 Ry     beta=0.70
     Davidson diagonalization with overlap
     ethr =  3.13E-12,  avg # of iterations =  8.0

     total cpu time spent up to now is      298.8 secs

     total energy              =   -2834.45038133 Ry
     Harris-Foulkes estimate   =   -2834.45038133 Ry
     estimated scf accuracy    <          5.7E-09 Ry

     iteration # 12     ecut=    50.00 Ry     beta=0.70
     Davidson diagonalization with overlap
     ethr =  5.70E-13,  avg # of iterations =  9.0

     total cpu time spent up to now is      309.5 secs

     total energy              =   -2834.45038133 Ry
     Harris-Foulkes estimate   =   -2834.45038133 Ry
     estimated scf accuracy    <          5.5E-10 Ry

     iteration # 13     ecut=    50.00 Ry     beta=0.70
     Davidson diagonalization with overlap
     ethr =  1.00E-13,  avg # of iterations =  5.0

     total cpu time spent up to now is      314.9 secs

     total energy              =   -2834.45038133 Ry
     Harris-Foulkes estimate   =   -2834.45038133 Ry
     estimated scf accuracy    <          1.1E-10 Ry

     iteration # 14     ecut=    50.00 Ry     beta=0.70
     Davidson diagonalization with overlap
     ethr =  1.00E-13,  avg # of iterations =  5.0

     total cpu time spent up to now is      319.1 secs

     End of self-consistent calculation

          k = 0.0000 0.0000 0.0000 ( 56233 PWs)   bands (ev):

    -7.9381  -6.8553  -6.8451  -6.8371  -6.8371  -6.8050  -6.8050  -6.8003
    -6.6996  -6.4487  -6.4487  -6.4427  -6.4220  -6.4220  -6.2013  -4.9834
    -4.9769  -4.9769  -4.9708  -4.9708  -4.9659  -4.9546  -4.9546  -4.9306
    -4.9306  -4.9026  -4.7669  -3.9071  -3.9033  -3.9033  -3.8985  -3.8935
    -3.8935  -3.8851  -3.8851  -3.8823  -3.8823  -3.8794  -3.8766  -3.8734
    -3.8669  -3.8669  -3.8655  -3.8639  -3.8639  -3.8228  -3.8228  -3.7907
    -3.7907  -3.7256  -3.6721  -3.5535  -3.5470  -3.5293  -3.5293  -3.5168
    -3.5168  -3.4073  -3.0073  -2.0495  -2.0495  -2.0448  -2.0448  -2.0187
    -1.9757  -1.3915  -1.3856  -1.3758  -1.3758  -1.3688  -1.3688  -1.3668
    -1.3632  -1.3632  -1.3616  -1.3616  -1.3570  -1.3436  -1.3376  -1.3376
    -1.3322  -1.3322  -1.3094  -1.3094  -1.3026  -1.2617  -1.2617  -1.1738
    -1.0817  -0.8162  -0.8162  -0.8126  -0.8125  -0.8125  -0.8119  -0.8117
    -0.8077  -0.8008  -0.8008  -0.7986  -0.7986  -0.7827  -0.7797  -0.7797
    -0.7766  -0.7766  -0.7552  -0.7318  -0.7318  -0.7164  -0.7164  -0.3577
     0.2244   1.1073   1.1125   1.1125   1.1209   1.1209   1.1433   1.1433
     1.1440   1.1562   1.1562   1.2254   1.3251   1.4641   1.4721   1.4722
     1.4722   1.4862   1.4862   1.4881   1.4890   1.4890   1.4937   1.4937
     1.5228   1.5230   1.5307   1.5307   1.5358   1.5358   1.5497   1.5718
     1.5718   1.5949   1.6148   1.6148   1.6464   1.6926   1.6994   1.6994
     1.7090   1.7119   1.7119   1.7718   1.7718   1.7897   1.7897   2.0528
     2.1736   2.3268   2.3268   2.3350   2.3889   2.3889   2.4031   2.5053
     2.7195   3.6878   3.6878   3.6887   3.6887   3.6899   3.6930   3.6957
     3.7075   3.7083   3.7083   3.7148   3.7148   3.7199   3.7199   3.7250
     3.7386   3.7386   3.7719   3.7853   3.7853   3.8346   3.8346   4.1142
     4.1791   4.4768   4.4768   4.4918   4.4918   4.6182   4.6253   4.9122
     4.9159   4.9294   4.9294   4.9319   4.9319   4.9606   4.9655   4.9655
     4.9723   4.9723   4.9826   5.0179   5.0255   5.0255   5.0263   5.0263
     5.0371   5.0392   5.0400   5.0400   5.0400   5.0414   5.0414   5.0867
     5.0950   5.0950   5.0988   5.0988   5.1076   5.1076   5.1261   5.1404
     5.1404   5.3086   5.3698   5.4165   5.4188   5.4228   5.4228   5.4296
     5.4334   5.4334   5.4468   5.4481   5.4481   5.4492   5.4492   5.4642
     5.4659   5.4659   5.4696   5.4696   5.5168   5.5168   5.6386   5.6799
     5.6799   5.8045   6.0025   6.9207   6.9207   6.9207   6.9378   6.9378
     6.9535   6.9752   6.9752   6.9948   6.9948   7.0791   7.1596   7.3800
     7.3886   7.3913   7.3913   7.3926   7.3926   7.4305   7.4313   7.4344
     7.4344   7.4378   7.4378   7.4421   7.4494   7.4505   7.4505   7.4513
     7.4513   7.4589   7.4611   7.4611   7.4632   7.4632   7.4742   7.4941
     7.4941   7.5065   7.5073   7.5099   7.5099   7.5099   7.5165   7.5252
     7.5252   7.5352   7.5352   7.5492   7.5758   7.5758   7.5759   7.5759
     7.6109   7.6379   7.6379   7.6529   7.6529   7.7418   7.8326   7.8446
     7.8519   7.8519   7.8608   7.8608   7.8655   7.8688   7.8688   7.8785
     7.8785   7.8926   7.8935   7.8935   7.8982   7.9197   7.9197   7.9231
     7.9966   7.9966   8.0060   8.0060   8.0324   8.0758   8.0989   8.1304
     8.1391   8.1391   8.1670   8.1912   8.1912   8.2035   8.2850   8.2850
     8.3838   8.3838   8.5021   9.0509   9.0509   9.0678   9.0678   9.0704
     9.0707   9.1372   9.1548   9.2083   9.2083   9.2153   9.2236   9.2236
     9.2246   9.2274   9.2394   9.2435   9.2435   9.2593   9.2593   9.2631
     9.2631   9.2798   9.2908   9.2908   9.3203   9.3538   9.3538   9.3630
     9.3630   9.4566   9.4647   9.4649   9.4649   9.4667   9.4771   9.4771
     9.4898   9.4913   9.5133   9.5133   9.5371   9.5371   9.5400   9.5456
     9.5456   9.5481   9.5567   9.5567   9.5675   9.6589   9.6589   9.7109
     9.7109   9.8368   9.8405  10.0432  10.0482  10.0482  10.0543  10.0543
    10.0588  10.0680  10.0882  10.0934  10.0963  10.0963  10.1028  10.1169
    10.1169  10.1412  10.1412  10.1608  10.1608  10.1899  10.3051  10.3051
    10.3491  10.3491  10.5659  10.6876  10.7012  10.7105  10.7105  10.7305
    10.7305  10.7839  10.8356  10.8356  10.8684  10.8694  10.8694  11.0326
    11.0326  11.0353  11.0353  11.1920  11.2939  11.3062  11.3062  11.3105
    11.3121  11.3125  11.3125  11.4165  11.4165  11.4179  11.4179  11.4183
    11.5439  11.5439  11.5739  11.5739  11.8014  11.9823  11.9897  12.0329
    12.0329  12.0659  12.0659  12.0717  12.1358  12.1358  12.1963  12.1963
    12.4701  12.6517  12.6653  12.6653  12.6667  12.6667  12.6756  12.7697
    12.7697  12.7779  12.7779  12.7954  12.8525  12.8525  13.0357  13.0357
    13.9045  14.1194  14.1194  14.9394  18.4024  18.4024  18.4043  18.4067
    18.4067  18.4345  18.9623  18.9658  18.9658  19.0013  19.0081  19.0081
    19.5413  19.5468  19.5468  19.6017  19.6017  19.6063  19.6119  19.6119
    19.6359  19.6502  19.6502  19.6682  19.7475  19.9094  19.9094  20.3305
    20.3305  20.3419  20.3459  20.3459  20.3510  20.3535  20.3579  20.3579
    20.3660  20.3702  20.3702  20.3800  20.3800  20.3964  20.3964  20.4022
    20.4217  20.4279  20.4309  20.4378  20.4378  20.4399  20.4399  20.5105
    20.5105  20.5538  20.5538  20.5616  20.6425  21.4881  21.4958  21.4976
    21.4976  21.4994  21.4994  21.5243  21.5261  21.5261  21.5332  21.5332
    21.5377  21.5377  21.5492  21.5574  21.5574  21.5601  21.5601  21.5694
    21.5756  21.5756  21.5784  21.5975  21.6232  21.6232  21.6300  21.6300
    21.6427  21.6525  21.6730  21.6730  21.6783  21.6783  21.6929  21.6961
[...]
     atom   23 type  1   force =    -0.00004004   -0.00009425   -0.00010282
     atom   24 type  1   force =     0.00004048   -0.00034702   -0.00024720
     atom   25 type  1   force =    -0.00000781   -0.00010866    0.00000781
     atom   26 type  1   force =     0.00013312   -0.00030152   -0.00013311
     atom   27 type  1   force =    -0.00008782    0.00015511    0.00011522
     atom   28 type  1   force =     0.00011726   -0.00015594   -0.00008276
     atom   29 type  1   force =    -0.00008354    0.00016638    0.00001950
     atom   30 type  1   force =     0.00034559    0.00004630    0.00003335
     atom   31 type  1   force =    -0.00026953    0.00016133    0.00016134
     atom   32 type  1   force =     0.00003780    0.00000779    0.00000778
     atom   33 type  1   force =    -0.00034411   -0.00005579   -0.00003606
     atom   34 type  1   force =     0.00009502   -0.00016888   -0.00001489
     atom   35 type  1   force =    -0.00011522    0.00015511    0.00008782
     atom   36 type  1   force =     0.00008276   -0.00015595   -0.00011726
     atom   37 type  1   force =    -0.00013451    0.00029910    0.00013451
     atom   38 type  1   force =     0.00001015    0.00011378   -0.00001014
     atom   39 type  1   force =    -0.00005026    0.00034385    0.00024671
     atom   40 type  1   force =     0.00004151    0.00009160    0.00010345
     atom   41 type  1   force =    -0.00024237    0.00010724    0.00010725
     atom   42 type  1   force =     0.00045832   -0.00018678   -0.00018677
     atom   43 type  1   force =    -0.00020344    0.00025131    0.00005408
     atom   44 type  1   force =     0.00004023   -0.00026259   -0.00021921
     atom   45 type  1   force =    -0.00001950    0.00016638    0.00008354
     atom   46 type  1   force =    -0.00003334    0.00004630   -0.00034559
     atom   47 type  1   force =    -0.00024671    0.00034385    0.00005026
     atom   48 type  1   force =    -0.00010346    0.00009160   -0.00004152
     atom   49 type  1   force =    -0.00023120    0.00022991    0.00023120
     atom   50 type  1   force =    -0.00001705   -0.00006711    0.00001705
     atom   51 type  1   force =    -0.00019595    0.00043648    0.00019595
     atom   52 type  1   force =     0.00010830   -0.00025240   -0.00010830
     atom   53 type  1   force =    -0.00005725   -0.00001025   -0.00001025
     atom   54 type  1   force =     0.00022914   -0.00023190   -0.00023189
     atom   55 type  1   force =     0.00009425   -0.00010283    0.00004004
     atom   56 type  1   force =     0.00034702   -0.00024720   -0.00004049
     atom   57 type  1   force =     0.00005579   -0.00003606    0.00034411
     atom   58 type  1   force =     0.00016888   -0.00001489   -0.00009502
     atom   59 type  1   force =    -0.00025131    0.00005409    0.00020344
     atom   60 type  1   force =     0.00026259   -0.00021921   -0.00004024
     atom   61 type  1   force =     0.00001025   -0.00001025    0.00005725
     atom   62 type  1   force =     0.00023190   -0.00023190   -0.00022915
     atom   63 type  1   force =     0.00005556   -0.00005557   -0.00005556
     atom   64 type  1   force =     0.00026170   -0.00026171   -0.00026171
     atom   65 type  1   force =     0.00016239   -0.00016239    0.00024805
     atom   66 type  1   force =     0.00031277   -0.00031277   -0.00001428
     atom   67 type  1   force =     0.00009871   -0.00009872    0.00036523
     atom   68 type  1   force =     0.00037480   -0.00037479    0.00020137
     atom   69 type  1   force =    -0.00008109    0.00008109    0.00026120
     atom   70 type  1   force =     0.00031204   -0.00031204    0.00018572
     atom   71 type  1   force =    -0.00004004   -0.00010282   -0.00009424
     atom   72 type  1   force =     0.00004049   -0.00024720   -0.00034702
     atom   73 type  1   force =    -0.00024805   -0.00016239   -0.00016239
     atom   74 type  1   force =     0.00001428   -0.00031276   -0.00031277
     atom   75 type  1   force =    -0.00014952    0.00000539    0.00014951
     atom   76 type  1   force =     0.00005868   -0.00023064   -0.00005868
     atom   77 type  1   force =    -0.00006055    0.00019629    0.00034062
     atom   78 type  1   force =     0.00017761   -0.00011800    0.00012631
     atom   79 type  1   force =     0.00000858    0.00010456    0.00026645
     atom   80 type  1   force =     0.00021837   -0.00010712   -0.00000642
     atom   81 type  1   force =    -0.00034411   -0.00003607   -0.00005578
     atom   82 type  1   force =     0.00009502   -0.00001489   -0.00016888
     atom   83 type  1   force =    -0.00036524   -0.00009872   -0.00009872
     atom   84 type  1   force =    -0.00020137   -0.00037480   -0.00037481
     atom   85 type  1   force =    -0.00034062    0.00019629    0.00006055
     atom   86 type  1   force =    -0.00012631   -0.00011800   -0.00017761
     atom   87 type  1   force =    -0.00019138    0.00015275    0.00019137
     atom   88 type  1   force =     0.00001498   -0.00007223   -0.00001498
     atom   89 type  1   force =    -0.00021461    0.00000568    0.00010354
     atom   90 type  1   force =    -0.00000624   -0.00026834   -0.00008926
     atom   91 type  1   force =    -0.00020343    0.00005409    0.00025131
     atom   92 type  1   force =     0.00004024   -0.00021921   -0.00026258
     atom   93 type  1   force =    -0.00026120    0.00008109    0.00008109
     atom   94 type  1   force =    -0.00018572   -0.00031204   -0.00031204
     atom   95 type  1   force =    -0.00026645    0.00010456   -0.00000858
     atom   96 type  1   force =     0.00000641   -0.00010713   -0.00021837
     atom   97 type  1   force =    -0.00010354    0.00000569    0.00021462
     atom   98 type  1   force =     0.00008925   -0.00026836    0.00000623
     atom   99 type  1   force =    -0.00030311   -0.00018140    0.00030311
     atom  100 type  1   force =     0.00008033   -0.00025853   -0.00008033
     atom  101 type  1   force =     0.00001003    0.00003227   -0.00001002
     atom  102 type  1   force =     0.00017179   -0.00027166   -0.00017179
     atom  103 type  1   force =     0.00009424    0.00004004   -0.00010283
     atom  104 type  1   force =     0.00034701   -0.00004049   -0.00024720
     atom  105 type  1   force =     0.00010867    0.00000782    0.00000782
     atom  106 type  1   force =     0.00030152   -0.00013312   -0.00013312
     atom  107 type  1   force =    -0.00015511    0.00008783    0.00011523
     atom  108 type  1   force =     0.00015595   -0.00011725   -0.00008276
     atom  109 type  1   force =    -0.00016638    0.00008354    0.00001950
     atom  110 type  1   force =    -0.00004630   -0.00034558    0.00003334
     atom  111 type  1   force =     0.00010282    0.00004004   -0.00009424
     atom  112 type  1   force =     0.00024720   -0.00004049   -0.00034702
     atom  113 type  1   force =     0.00016240    0.00024805   -0.00016239
     atom  114 type  1   force =     0.00031276   -0.00001428   -0.00031276
     atom  115 type  1   force =    -0.00000539    0.00014951    0.00014951
     atom  116 type  1   force =     0.00023064   -0.00005867   -0.00005867
     atom  117 type  1   force =    -0.00019629    0.00006054    0.00034061
     atom  118 type  1   force =     0.00011799   -0.00017761    0.00012631
     atom  119 type  1   force =    -0.00010455   -0.00000860    0.00026646
     atom  120 type  1   force =     0.00010712   -0.00021837   -0.00000642
     atom  121 type  1   force =    -0.00000782    0.00000782   -0.00010866
     atom  122 type  1   force =     0.00013312   -0.00013312   -0.00030152
     atom  123 type  1   force =    -0.00014951    0.00014951    0.00000540
     atom  124 type  1   force =     0.00005867   -0.00005866   -0.00023064
     atom  125 type  1   force =    -0.00020999    0.00020999    0.00021000
     atom  126 type  1   force =     0.00002579   -0.00002579   -0.00002579
     atom  127 type  1   force =    -0.00013059    0.00013059    0.00022266
     atom  128 type  1   force =     0.00009182   -0.00009182    0.00000153
     atom  129 type  1   force =    -0.00001456    0.00001455    0.00007543
     atom  130 type  1   force =     0.00018922   -0.00018921   -0.00014723
     atom  131 type  1   force =    -0.00011523    0.00008783    0.00015511
     atom  132 type  1   force =     0.00008277   -0.00011726   -0.00015595
     atom  133 type  1   force =    -0.00034062    0.00006054    0.00019630
     atom  134 type  1   force =    -0.00012631   -0.00017761   -0.00011800
     atom  135 type  1   force =    -0.00022267    0.00013059    0.00013059
     atom  136 type  1   force =    -0.00000153   -0.00009182   -0.00009183
     atom  137 type  1   force =    -0.00009291   -0.00000571    0.00009291
     atom  138 type  1   force =     0.00013007   -0.00021421   -0.00013007
     atom  139 type  1   force =    -0.00017928   -0.00013349    0.00011466
     atom  140 type  1   force =     0.00006272   -0.00033521   -0.00019126
     atom  141 type  1   force =    -0.00001950    0.00008355    0.00016639
     atom  142 type  1   force =    -0.00003334   -0.00034559    0.00004629
     atom  143 type  1   force =    -0.00026646   -0.00000859    0.00010456
     atom  144 type  1   force =     0.00000642   -0.00021837   -0.00010712
     atom  145 type  1   force =    -0.00007543    0.00001455    0.00001456
     atom  146 type  1   force =     0.00014723   -0.00018921   -0.00018921
     atom  147 type  1   force =    -0.00011466   -0.00013349    0.00017928
     atom  148 type  1   force =     0.00019127   -0.00033521   -0.00006272
     atom  149 type  1   force =    -0.00037629   -0.00018124    0.00037630
     atom  150 type  1   force =    -0.00010816   -0.00037145    0.00010816
     atom  151 type  1   force =    -0.00016133    0.00026953    0.00016134
     atom  152 type  1   force =    -0.00000779   -0.00003780    0.00000778
     atom  153 type  1   force =     0.00005579    0.00034411   -0.00003606
     atom  154 type  1   force =     0.00016887   -0.00009502   -0.00001489
     atom  155 type  1   force =    -0.00015511    0.00011523    0.00008783
     atom  156 type  1   force =     0.00015595   -0.00008276   -0.00011726
     atom  157 type  1   force =    -0.00029910    0.00013451    0.00013451
     atom  158 type  1   force =    -0.00011378   -0.00001014   -0.00001015
     atom  159 type  1   force =    -0.00034385    0.00005026    0.00024671
     atom  160 type  1   force =    -0.00009160   -0.00004151    0.00010345
     atom  161 type  1   force =     0.00003606    0.00034411   -0.00005579
     atom  162 type  1   force =     0.00001489   -0.00009502   -0.00016887
     atom  163 type  1   force =     0.00009873    0.00036524   -0.00009872
     atom  164 type  1   force =     0.00037480    0.00020137   -0.00037480
     atom  165 type  1   force =    -0.00019629    0.00034061    0.00006054
     atom  166 type  1   force =     0.00011800    0.00012632   -0.00017762
     atom  167 type  1   force =    -0.00015273    0.00019137    0.00019137
     atom  168 type  1   force =     0.00007222   -0.00001498   -0.00001498
     atom  169 type  1   force =    -0.00000569    0.00021461    0.00010354
     atom  170 type  1   force =     0.00026835    0.00000623   -0.00008925
     atom  171 type  1   force =    -0.00008783    0.00011523    0.00015511
     atom  172 type  1   force =     0.00011726   -0.00008277   -0.00015595
     atom  173 type  1   force =    -0.00006054    0.00034061    0.00019629
     atom  174 type  1   force =     0.00017762    0.00012632   -0.00011800
     atom  175 type  1   force =    -0.00013059    0.00022267    0.00013059
     atom  176 type  1   force =     0.00009182    0.00000152   -0.00009182
     atom  177 type  1   force =     0.00000571    0.00009291    0.00009292
     atom  178 type  1   force =     0.00021421   -0.00013007   -0.00013007
     atom  179 type  1   force =     0.00013348    0.00017927    0.00011466
     atom  180 type  1   force =     0.00033521   -0.00006271   -0.00019127
     atom  181 type  1   force =    -0.00013452    0.00013451    0.00029910
     atom  182 type  1   force =     0.00001015   -0.00001015    0.00011378
     atom  183 type  1   force =    -0.00019137    0.00019137    0.00015273
     atom  184 type  1   force =     0.00001498   -0.00001499   -0.00007222
     atom  185 type  1   force =    -0.00009292    0.00009291   -0.00000571
     atom  186 type  1   force =     0.00013007   -0.00013006   -0.00021421
     atom  187 type  1   force =    -0.00002371    0.00002372    0.00002372
     atom  188 type  1   force =     0.00020790   -0.00020790   -0.00020790
     atom  189 type  1   force =    -0.00005904    0.00005903    0.00022605
     atom  190 type  1   force =     0.00015018   -0.00015017    0.00000023
     atom  191 type  1   force =    -0.00024672    0.00005026    0.00034385
     atom  192 type  1   force =    -0.00010345   -0.00004152    0.00009160
     atom  193 type  1   force =    -0.00010354    0.00021462    0.00000569
     atom  194 type  1   force =     0.00008925    0.00000623   -0.00026835
     atom  195 type  1   force =    -0.00011466    0.00017927   -0.00013349
     atom  196 type  1   force =     0.00019127   -0.00006271   -0.00033521
     atom  197 type  1   force =    -0.00022605    0.00005903    0.00005904
     atom  198 type  1   force =    -0.00000024   -0.00015017   -0.00015018
     atom  199 type  1   force =    -0.00030930    0.00001654    0.00030931
     atom  200 type  1   force =    -0.00016387   -0.00025583    0.00016387
     atom  201 type  1   force =    -0.00010725    0.00024237    0.00010725
     atom  202 type  1   force =     0.00018678   -0.00045832   -0.00018678
     atom  203 type  1   force =    -0.00025131    0.00020344    0.00005408
     atom  204 type  1   force =     0.00026258   -0.00004024   -0.00021921
     atom  205 type  1   force =    -0.00016639    0.00001950    0.00008354
     atom  206 type  1   force =    -0.00004630    0.00003335   -0.00034559
     atom  207 type  1   force =    -0.00034385    0.00024671    0.00005026
     atom  208 type  1   force =    -0.00009160    0.00010346   -0.00004152
     atom  209 type  1   force =    -0.00022991    0.00023120    0.00023120
     atom  210 type  1   force =     0.00006713    0.00001706    0.00001706
     atom  211 type  1   force =    -0.00005408    0.00020344    0.00025131
     atom  212 type  1   force =     0.00021921   -0.00004024   -0.00026259
     atom  213 type  1   force =    -0.00008109    0.00026120    0.00008109
     atom  214 type  1   force =     0.00031203    0.00018573   -0.00031204
     atom  215 type  1   force =    -0.00010455    0.00026645   -0.00000859
     atom  216 type  1   force =     0.00010712   -0.00000642   -0.00021837
     atom  217 type  1   force =    -0.00000569    0.00010354    0.00021462
     atom  218 type  1   force =     0.00026835   -0.00008925    0.00000623
     atom  219 type  1   force =     0.00018140    0.00030311    0.00030311
     atom  220 type  1   force =     0.00025852   -0.00008033   -0.00008033
     atom  221 type  1   force =    -0.00008354    0.00001950    0.00016639
     atom  222 type  1   force =     0.00034559    0.00003335    0.00004629
     atom  223 type  1   force =     0.00000859    0.00026645    0.00010455
     atom  224 type  1   force =     0.00021837   -0.00000642   -0.00010712
     atom  225 type  1   force =    -0.00001456    0.00007544    0.00001456
     atom  226 type  1   force =     0.00018921   -0.00014723   -0.00018921
     atom  227 type  1   force =     0.00013348    0.00011465    0.00017928
     atom  228 type  1   force =     0.00033521   -0.00019126   -0.00006272
     atom  229 type  1   force =     0.00018125    0.00037629    0.00037630
     atom  230 type  1   force =     0.00037146    0.00010817    0.00010816
     atom  231 type  1   force =    -0.00005025    0.00024672    0.00034385
     atom  232 type  1   force =     0.00004152    0.00010345    0.00009160
     atom  233 type  1   force =    -0.00021462    0.00010354    0.00000568
     atom  234 type  1   force =    -0.00000623   -0.00008925   -0.00026835
     atom  235 type  1   force =    -0.00017927    0.00011465   -0.00013348
     atom  236 type  1   force =     0.00006272   -0.00019126   -0.00033520
     atom  237 type  1   force =    -0.00005904    0.00022605    0.00005904
     atom  238 type  1   force =     0.00015017    0.00000024   -0.00015017
     atom  239 type  1   force =    -0.00001655    0.00030929    0.00030930
     atom  240 type  1   force =     0.00025584    0.00016388    0.00016387
     atom  241 type  1   force =    -0.00023120    0.00023120    0.00022992
     atom  242 type  1   force =    -0.00001706    0.00001706   -0.00006713
     atom  243 type  1   force =    -0.00030311    0.00030311   -0.00018140
     atom  244 type  1   force =     0.00008033   -0.00008033   -0.00025853
     atom  245 type  1   force =    -0.00037630    0.00037629   -0.00018124
     atom  246 type  1   force =    -0.00010817    0.00010816   -0.00037146
     atom  247 type  1   force =    -0.00030930    0.00030929    0.00001654
     atom  248 type  1   force =    -0.00016387    0.00016387   -0.00025583
     atom  249 type  1   force =    -0.00027001    0.00027001    0.00027000
     atom  250 type  1   force =    -0.00005444    0.00005443    0.00005443

     Total force =     0.005097     Total SCF correction =     0.000002


     Computing stress (Cartesian axis) and pressure

          total   stress  (Ry/bohr**3)                   (kbar)     P=   -4.14
  -0.00002812   0.00000246   0.00000246         -4.14      0.36      0.36
   0.00000246  -0.00002812  -0.00000246          0.36     -4.14     -0.36
   0.00000246  -0.00000246  -0.00002812          0.36     -0.36     -4.14


     Writing output data file b.save
 
     init_run     :      3.08s CPU      3.41s WALL (       2 calls)
     electrons    :   1052.51s CPU   1068.93s WALL (       8 calls)
     update_pot   :      0.88s CPU      1.13s WALL (       6 calls)
     forces       :      5.93s CPU      6.08s WALL (       8 calls)
     stress       :     36.63s CPU     36.76s WALL (       8 calls)

     Called by init_run:
     wfcinit      :      2.54s CPU      2.66s WALL (       2 calls)
     potinit      :      0.11s CPU      0.11s WALL (       2 calls)

     Called by electrons:
     c_bands      :   1023.13s CPU   1038.60s WALL (     117 calls)
     sum_band     :     25.30s CPU     25.65s WALL (     117 calls)
     v_of_rho     :      1.27s CPU      1.28s WALL (     122 calls)
     mix_rho      :      1.95s CPU      1.97s WALL (     117 calls)

     Called by c_bands:
     init_us_2    :      0.87s CPU      0.94s WALL (     236 calls)
     cegterg      :   1018.59s CPU   1033.85s WALL (     118 calls)

     Called by sum_band:

     Called by *egterg:
     h_psi        :    214.55s CPU    216.68s WALL (    1070 calls)
     g_psi        :      0.19s CPU      0.20s WALL (     950 calls)
     cdiaghg      :    673.68s CPU    684.35s WALL (    1058 calls)

     Called by h_psi:
     h_psi:pot    :    214.23s CPU    216.34s WALL (    1070 calls)
     h_psi:calbec :     38.92s CPU     39.27s WALL (    1070 calls)
     vloc_psi     :    140.80s CPU    142.26s WALL (    1070 calls)
     add_vuspsi   :     34.50s CPU     34.80s WALL (    1070 calls)

     General routines
     calbec       :     43.49s CPU     43.86s WALL (    1110 calls)
     fft          :      2.41s CPU      2.62s WALL (    1410 calls)
     ffts         :      1.37s CPU      1.39s WALL (    1688 calls)
     fftw         :    158.88s CPU    160.56s WALL (  475592 calls)
 
     Parallel routines
     fft_scatter  :    124.07s CPU    125.70s WALL (  478690 calls)
 
     PWSCF        : 18m25.94s CPU    18m49.85s WALL

 
   This run was terminated on:   9:40:39  10Nov2020            

=------------------------------------------------------------------------------=
   JOB DONE.
=------------------------------------------------------------------------------=
