
     Program PWSCF v.6.1 (svn rev. 13369) starts on 10Jun2021 at 22:14:51 

     This program is part of the open-source Quantum ESPRESSO suite
     for quantum simulation of materials; please cite
         "P. Giannozzi et al., J. Phys.:Condens. Matter 21 395502 (2009);
          URL http://www.quantum-espresso.org", 
     in publications or presentations arising from this work. More details at
     http://www.quantum-espresso.org/quote

     Parallel version (MPI & OpenMP), running on      80 processor cores
     Number of MPI processes:                80
     Threads/MPI process:                     1
     K-points division:     npool     =       4
     R & G space division:  proc/nbgrp/npool/nimage =      20
     Waiting for input...
     Reading input from standard input

     Current dimensions of program PWSCF are:
     Max number of different atomic species (ntypx) = 10
     Max number of k-points (npk) =  40000
     Max angular momentum in pseudopotentials (lmaxx) =  3

     IMPORTANT: XC functional enforced from input :
     Exchange-correlation      = PBE ( 1  4  3  4 0 0)
     Any further DFT definition will be discarded
     Please, verify this is what you really want


     Subspace diagonalization in iterative solution of the eigenvalue problem:
     one sub-group per band group will be used
     scalapack distributed-memory algorithm (size of sub-group:  3*  3 procs)

 
     Parallelization info
     --------------------
     sticks:   dense  smooth     PW     G-vecs:    dense   smooth      PW
     Min          18      18      6                  231      231      46
     Max          19      19      7                  235      235      50
     Sum         367     367    121                 4645     4645     941
 


     bravais-lattice index     =            2
     lattice parameter (alat)  =       6.6745  a.u.
     unit-cell volume          =      74.3349 (a.u.)^3
     number of atoms/cell      =            2
     number of atomic types    =            1
     number of electrons       =         8.00
     number of Kohn-Sham states=            8
     kinetic-energy cutoff     =      60.0000  Ry
     charge density cutoff     =     240.0000  Ry
     convergence threshold     =      1.0E-20
     mixing beta               =       0.7000
     number of iterations used =            8  plain     mixing
     Exchange-correlation      = PBE ( 1  4  3  4 0 0)

     celldm(1)=   6.674482  celldm(2)=   0.000000  celldm(3)=   0.000000
     celldm(4)=   0.000000  celldm(5)=   0.000000  celldm(6)=   0.000000

     crystal axes: (cart. coord. in units of alat)
               a(1) = (  -0.500000   0.000000   0.500000 )  
               a(2) = (   0.000000   0.500000   0.500000 )  
               a(3) = (  -0.500000   0.500000   0.000000 )  

     reciprocal axes: (cart. coord. in units 2 pi/alat)
               b(1) = ( -1.000000 -1.000000  1.000000 )  
               b(2) = (  1.000000  1.000000  1.000000 )  
               b(3) = ( -1.000000  1.000000 -1.000000 )  


     PseudoPot. # 1 for C  read from file:
     ~/PseudoPotential/upf/C_ONCV_PBE-1.0.upf
     MD5 check sum: Not computed, couldn't open file
     Pseudo is Norm-conserving, Zval =  4.0
     Generated using ONCVPSP code by D. R. Hamann
     Using radial grid of  602 points,  4 beta functions with: 
                l(1) =   0
                l(2) =   0
                l(3) =   1
                l(4) =   1

     atomic species   valence    mass     pseudopotential
        C              4.00    12.01100     C ( 1.00)

     48 Sym. Ops., with inversion, found (24 have fractional translation)



   Cartesian axes

     site n.     atom                  positions (alat units)
         1           C   tau(   1) = (   0.0000000   0.0000000   0.0000000  )
         2           C   tau(   2) = (  -0.2500000   0.2500000   0.2500000  )

     number of k points=   145

     Number of k-points >= 100: set verbosity='high' to print them.

     Dense  grid:     4645 G-vectors     FFT dimensions: (  24,  24,  24)

     Estimated max dynamical RAM per process >       0.33MB

     Estimated total allocated dynamical RAM >      26.62MB

     Initial potential from superposition of free atoms

     starting charge    7.98607, renormalised to    8.00000
     Starting wfc are random

     total cpu time spent up to now is        2.6 secs

     per-process dynamical memory:    15.8 Mb

     Self-consistent Calculation

     iteration #  1     ecut=    60.00 Ry     beta=0.70
     Davidson diagonalization with overlap
     ethr =  1.00E-02,  avg # of iterations =  7.0

     total cpu time spent up to now is        4.4 secs

     total energy              =     -22.77418298 Ry
     Harris-Foulkes estimate   =     -22.82847595 Ry
     estimated scf accuracy    <       0.12242360 Ry

     iteration #  2     ecut=    60.00 Ry     beta=0.70
     Davidson diagonalization with overlap
     ethr =  1.53E-03,  avg # of iterations =  2.0

     total cpu time spent up to now is        5.0 secs

     total energy              =     -22.78209691 Ry
     Harris-Foulkes estimate   =     -22.78249415 Ry
     estimated scf accuracy    <       0.00253400 Ry

     iteration #  3     ecut=    60.00 Ry     beta=0.70
     Davidson diagonalization with overlap
     ethr =  3.17E-05,  avg # of iterations =  2.9

     total cpu time spent up to now is        5.8 secs

     total energy              =     -22.78255685 Ry
     Harris-Foulkes estimate   =     -22.78254545 Ry
     estimated scf accuracy    <       0.00007726 Ry

     iteration #  4     ecut=    60.00 Ry     beta=0.70
     Davidson diagonalization with overlap
     ethr =  9.66E-07,  avg # of iterations =  2.3

     total cpu time spent up to now is        6.4 secs

     total energy              =     -22.78256150 Ry
     Harris-Foulkes estimate   =     -22.78256311 Ry
     estimated scf accuracy    <       0.00000348 Ry

     iteration #  5     ecut=    60.00 Ry     beta=0.70
     Davidson diagonalization with overlap
     ethr =  4.35E-08,  avg # of iterations =  2.3

     total cpu time spent up to now is        7.0 secs

     total energy              =     -22.78256184 Ry
     Harris-Foulkes estimate   =     -22.78256181 Ry
     estimated scf accuracy    <       0.00000001 Ry

     iteration #  6     ecut=    60.00 Ry     beta=0.70
     Davidson diagonalization with overlap
     ethr =  1.66E-10,  avg # of iterations =  3.2

     total cpu time spent up to now is        7.9 secs

     total energy              =   -22.782561853212226 Ry
     Harris-Foulkes estimate   =     -22.78256185 Ry
     estimated scf accuracy    <          3.0E-09 Ry

     iteration #  7     ecut=    60.00 Ry     beta=0.70
     Davidson diagonalization with overlap
     ethr =  3.80E-11,  avg # of iterations =  2.3

     total cpu time spent up to now is        8.6 secs

     total energy              =   -22.782561853501008 Ry
     Harris-Foulkes estimate   =     -22.78256185 Ry
     estimated scf accuracy    <          6.4E-12 Ry

     iteration #  8     ecut=    60.00 Ry     beta=0.70
     Davidson diagonalization with overlap
     ethr =  1.00E-13,  avg # of iterations =  3.7

     total cpu time spent up to now is        9.6 secs

     total energy              =   -22.782561853511403 Ry
     Harris-Foulkes estimate   =     -22.78256185 Ry
     estimated scf accuracy    <          7.6E-13 Ry

     iteration #  9     ecut=    60.00 Ry     beta=0.70
     Davidson diagonalization with overlap
     ethr =  1.00E-13,  avg # of iterations =  1.0

     total cpu time spent up to now is        9.9 secs

     total energy              =   -22.782561853511417 Ry
     Harris-Foulkes estimate   =     -22.78256185 Ry
     estimated scf accuracy    <          7.3E-14 Ry

     iteration # 10     ecut=    60.00 Ry     beta=0.70
     Davidson diagonalization with overlap
     ethr =  1.00E-13,  avg # of iterations =  1.0

     total cpu time spent up to now is       10.3 secs

     total energy              =   -22.782561853511410 Ry
     Harris-Foulkes estimate   =     -22.78256185 Ry
     estimated scf accuracy    <          6.2E-16 Ry

     iteration # 11     ecut=    60.00 Ry     beta=0.70
     Davidson diagonalization with overlap
     ethr =  1.00E-13,  avg # of iterations =  1.0

     total cpu time spent up to now is       10.7 secs

     total energy              =   -22.782561853511414 Ry
     Harris-Foulkes estimate   =     -22.78256185 Ry
     estimated scf accuracy    <          2.0E-16 Ry

     iteration # 12     ecut=    60.00 Ry     beta=0.70
     Davidson diagonalization with overlap
     ethr =  1.00E-13,  avg # of iterations =  1.0

     total cpu time spent up to now is       11.1 secs

     total energy              =   -22.782561853511414 Ry
     Harris-Foulkes estimate   =     -22.78256185 Ry
     estimated scf accuracy    <          3.1E-18 Ry

     iteration # 13     ecut=    60.00 Ry     beta=0.70
     Davidson diagonalization with overlap
     ethr =  1.00E-13,  avg # of iterations =  1.0

     total cpu time spent up to now is       11.5 secs

     total energy              =   -22.782561853511421 Ry
     Harris-Foulkes estimate   =     -22.78256185 Ry
     estimated scf accuracy    <          4.2E-19 Ry

     iteration # 14     ecut=    60.00 Ry     beta=0.70
     Davidson diagonalization with overlap
     ethr =  1.00E-13,  avg # of iterations =  1.0

     total cpu time spent up to now is       11.9 secs

     total energy              =   -22.782561853511424 Ry
     Harris-Foulkes estimate   =     -22.78256185 Ry
     estimated scf accuracy    <          5.4E-19 Ry

     iteration # 15     ecut=    60.00 Ry     beta=0.70
     Davidson diagonalization with overlap
     ethr =  1.00E-13,  avg # of iterations =  1.0

     total cpu time spent up to now is       12.3 secs

     End of self-consistent calculation

     Number of k-points >= 100: set verbosity='high' to print the bands.

     highest occupied, lowest unoccupied level (ev):    13.8653   18.0953

!    total energy              =   -22.782561853511417 Ry
     Harris-Foulkes estimate   =     -22.78256185 Ry
     estimated scf accuracy    <          4.1E-21 Ry

     The total energy is the sum of the following terms:

     one-electron contribution =       8.30138885 Ry
     hartree contribution      =       1.90780513 Ry
     xc contribution           =      -7.16540268 Ry
     ewald contribution        =     -25.82635315 Ry

     convergence has been achieved in  15 iterations

     Writing output data file c.save
 
     init_run     :      0.25s CPU      1.02s WALL (       1 calls)
     electrons    :      9.54s CPU      9.76s WALL (       1 calls)

     Called by init_run:
     wfcinit      :      0.18s CPU      0.50s WALL (       1 calls)
     potinit      :      0.02s CPU      0.06s WALL (       1 calls)

     Called by electrons:
     c_bands      :      9.00s CPU      9.16s WALL (      15 calls)
     sum_band     :      0.35s CPU      0.38s WALL (      15 calls)
     v_of_rho     :      0.01s CPU      0.03s WALL (      16 calls)
     mix_rho      :      0.01s CPU      0.02s WALL (      15 calls)

     Called by c_bands:
     init_us_2    :      0.01s CPU      0.01s WALL (    1147 calls)
     cegterg      :      3.00s CPU      3.11s WALL (     555 calls)

     Called by sum_band:

     Called by *egterg:
     h_psi        :      0.71s CPU      0.75s WALL (    1788 calls)
     g_psi        :      0.00s CPU      0.00s WALL (    1196 calls)
     cdiaghg      :      1.87s CPU      2.20s WALL (    1751 calls)

     Called by h_psi:
     h_psi:pot    :      0.70s CPU      0.75s WALL (    1788 calls)
     h_psi:calbec :      0.04s CPU      0.05s WALL (    1788 calls)
     vloc_psi     :      0.64s CPU      0.66s WALL (    1788 calls)
     add_vuspsi   :      0.01s CPU      0.02s WALL (    1788 calls)

     General routines
     calbec       :      0.04s CPU      0.04s WALL (    1788 calls)
     fft          :      0.02s CPU      0.29s WALL (     175 calls)
     fftw         :      0.67s CPU      0.70s WALL (   28472 calls)
 
     Parallel routines
     fft_scatter  :      0.45s CPU      0.47s WALL (   28647 calls)
 
     PWSCF        :    10.93s CPU        14.83s WALL

 
   This run was terminated on:  22:15: 6  10Jun2021            

=------------------------------------------------------------------------------=
   JOB DONE.
=------------------------------------------------------------------------------=
