
     Program PWSCF v.6.1 (svn rev. 13369) starts on  4Jan2021 at 19:40:48 

     This program is part of the open-source Quantum ESPRESSO suite
     for quantum simulation of materials; please cite
         "P. Giannozzi et al., J. Phys.:Condens. Matter 21 395502 (2009);
          URL http://www.quantum-espresso.org", 
     in publications or presentations arising from this work. More details at
     http://www.quantum-espresso.org/quote

     Parallel version (MPI & OpenMP), running on      40 processor cores
     Number of MPI processes:                40
     Threads/MPI process:                     1
     R & G space division:  proc/nbgrp/npool/nimage =      40
     Waiting for input...
     Reading input from standard input

     Current dimensions of program PWSCF are:
     Max number of different atomic species (ntypx) = 10
     Max number of k-points (npk) =  40000
     Max angular momentum in pseudopotentials (lmaxx) =  3

     IMPORTANT: XC functional enforced from input :
     Exchange-correlation      = PZ ( 1  1  0  0 0 0)
     Any further DFT definition will be discarded
     Please, verify this is what you really want

               file C.pz-mt.fhi.UPF: wavefunction(s)  3d renormalized

     Subspace diagonalization in iterative solution of the eigenvalue problem:
     one sub-group per band group will be used
     scalapack distributed-memory algorithm (size of sub-group:  4*  4 procs)

 
     Parallelization info
     --------------------
     sticks:   dense  smooth     PW     G-vecs:    dense   smooth      PW
     Min           9       9      3                  116      116      23
     Max          10      10      4                  120      120      27
     Sum         367     367    121                 4693     4693     941
 


     bravais-lattice index     =            2
     lattice parameter (alat)  =       6.7034  a.u.
     unit-cell volume          =      75.3061 (a.u.)^3
     number of atoms/cell      =            2
     number of atomic types    =            1
     number of electrons       =         8.00
     number of Kohn-Sham states=            4
     kinetic-energy cutoff     =      60.0000  Ry
     charge density cutoff     =     240.0000  Ry
     convergence threshold     =      1.0E-20
     mixing beta               =       0.7000
     number of iterations used =            8  plain     mixing
     Exchange-correlation      = PZ ( 1  1  0  0 0 0)

     celldm(1)=   6.703426  celldm(2)=   0.000000  celldm(3)=   0.000000
     celldm(4)=   0.000000  celldm(5)=   0.000000  celldm(6)=   0.000000

     crystal axes: (cart. coord. in units of alat)
               a(1) = (  -0.500000   0.000000   0.500000 )  
               a(2) = (   0.000000   0.500000   0.500000 )  
               a(3) = (  -0.500000   0.500000   0.000000 )  

     reciprocal axes: (cart. coord. in units 2 pi/alat)
               b(1) = ( -1.000000 -1.000000  1.000000 )  
               b(2) = (  1.000000  1.000000  1.000000 )  
               b(3) = ( -1.000000  1.000000 -1.000000 )  


     PseudoPot. # 1 for  C read from file:
     ../../C.pz-mt.fhi.UPF
     MD5 check sum: b7c38bc33a0cf75f44be89b84470f298
     Pseudo is Norm-conserving, Zval =  4.0
     Generated using FHI98PP, converted with fhi2upf.x v.5.0.2
     Using radial grid of  461 points,  2 beta functions with: 
                l(1) =   0
                l(2) =   1

     atomic species   valence    mass     pseudopotential
        C              4.00    12.01100      C( 1.00)

     48 Sym. Ops., with inversion, found (24 have fractional translation)



   Cartesian axes

     site n.     atom                  positions (alat units)
         1           C   tau(   1) = (   0.0000000   0.0000000   0.0000000  )
         2           C   tau(   2) = (  -0.2500000   0.2500000   0.2500000  )

     number of k points=   145

     Number of k-points >= 100: set verbosity='high' to print them.

     Dense  grid:     4693 G-vectors     FFT dimensions: (  24,  24,  24)

     Estimated max dynamical RAM per process >       0.22MB

     Estimated total allocated dynamical RAM >       8.69MB
     Message from routine sym_rho_init:
     some processors have no G-vectors for symmetrization

     Initial potential from superposition of free atoms

     starting charge    7.99993, renormalised to    8.00000
     Starting wfc are   18 randomized atomic wfcs

     total cpu time spent up to now is        1.0 secs

     per-process dynamical memory:    18.2 Mb

     Self-consistent Calculation

     iteration #  1     ecut=    60.00 Ry     beta=0.70
     Davidson diagonalization with overlap
     ethr =  1.00E-02,  avg # of iterations =  2.0

     total cpu time spent up to now is        2.0 secs

     total energy              =     -22.87605475 Ry
     Harris-Foulkes estimate   =     -22.94418645 Ry
     estimated scf accuracy    <       0.12988810 Ry

     iteration #  2     ecut=    60.00 Ry     beta=0.70
     Davidson diagonalization with overlap
     ethr =  1.62E-03,  avg # of iterations =  2.0

     total cpu time spent up to now is        3.0 secs

     total energy              =     -22.88795000 Ry
     Harris-Foulkes estimate   =     -22.88848151 Ry
     estimated scf accuracy    <       0.00192868 Ry

     iteration #  3     ecut=    60.00 Ry     beta=0.70
     Davidson diagonalization with overlap
     ethr =  2.41E-05,  avg # of iterations =  2.1

     total cpu time spent up to now is        4.1 secs

     total energy              =     -22.88831728 Ry
     Harris-Foulkes estimate   =     -22.88832810 Ry
     estimated scf accuracy    <       0.00007028 Ry

     iteration #  4     ecut=    60.00 Ry     beta=0.70
     Davidson diagonalization with overlap
     ethr =  8.78E-07,  avg # of iterations =  2.5

     total cpu time spent up to now is        5.3 secs

     total energy              =     -22.88833553 Ry
     Harris-Foulkes estimate   =     -22.88833717 Ry
     estimated scf accuracy    <       0.00000286 Ry

     iteration #  5     ecut=    60.00 Ry     beta=0.70
     Davidson diagonalization with overlap
     ethr =  3.58E-08,  avg # of iterations =  2.4

     total cpu time spent up to now is        6.5 secs

     total energy              =     -22.88833652 Ry
     Harris-Foulkes estimate   =     -22.88833653 Ry
     estimated scf accuracy    <       0.00000002 Ry

     iteration #  6     ecut=    60.00 Ry     beta=0.70
     Davidson diagonalization with overlap
     ethr =  3.01E-10,  avg # of iterations =  3.2

     total cpu time spent up to now is        8.0 secs

     total energy              =     -22.88833654 Ry
     Harris-Foulkes estimate   =     -22.88833654 Ry
     estimated scf accuracy    <          7.7E-10 Ry

     iteration #  7     ecut=    60.00 Ry     beta=0.70
     Davidson diagonalization with overlap
     ethr =  9.64E-12,  avg # of iterations =  2.2

     total cpu time spent up to now is        9.1 secs

     total energy              =     -22.88833654 Ry
     Harris-Foulkes estimate   =     -22.88833654 Ry
     estimated scf accuracy    <          2.3E-12 Ry

     iteration #  8     ecut=    60.00 Ry     beta=0.70
     Davidson diagonalization with overlap
     ethr =  1.00E-13,  avg # of iterations =  2.8

     total cpu time spent up to now is       10.5 secs

     total energy              =     -22.88833654 Ry
     Harris-Foulkes estimate   =     -22.88833654 Ry
     estimated scf accuracy    <          5.0E-13 Ry

     iteration #  9     ecut=    60.00 Ry     beta=0.70
     Davidson diagonalization with overlap
     ethr =  1.00E-13,  avg # of iterations =  1.0

     total cpu time spent up to now is       11.2 secs

     total energy              =     -22.88833654 Ry
     Harris-Foulkes estimate   =     -22.88833654 Ry
     estimated scf accuracy    <          7.1E-16 Ry

     iteration # 10     ecut=    60.00 Ry     beta=0.70
     Davidson diagonalization with overlap
     ethr =  1.00E-13,  avg # of iterations =  1.0

     total cpu time spent up to now is       11.9 secs

     total energy              =     -22.88833654 Ry
     Harris-Foulkes estimate   =     -22.88833654 Ry
     estimated scf accuracy    <          5.8E-17 Ry

     iteration # 11     ecut=    60.00 Ry     beta=0.70
     Davidson diagonalization with overlap
     ethr =  1.00E-13,  avg # of iterations =  1.0

     total cpu time spent up to now is       12.6 secs

     total energy              =     -22.88833654 Ry
     Harris-Foulkes estimate   =     -22.88833654 Ry
     estimated scf accuracy    <          3.7E-16 Ry

     iteration # 12     ecut=    60.00 Ry     beta=0.70
     Davidson diagonalization with overlap
     ethr =  1.00E-13,  avg # of iterations =  1.0

     total cpu time spent up to now is       13.3 secs

     total energy              =     -22.88833654 Ry
     Harris-Foulkes estimate   =     -22.88833654 Ry
     estimated scf accuracy    <          7.8E-18 Ry

     iteration # 13     ecut=    60.00 Ry     beta=0.70
     Davidson diagonalization with overlap
     ethr =  1.00E-13,  avg # of iterations =  1.0

     total cpu time spent up to now is       14.0 secs

     total energy              =     -22.88833654 Ry
     Harris-Foulkes estimate   =     -22.88833654 Ry
     estimated scf accuracy    <          1.0E-18 Ry

     iteration # 14     ecut=    60.00 Ry     beta=0.70
     Davidson diagonalization with overlap
     ethr =  1.00E-13,  avg # of iterations =  1.0

     total cpu time spent up to now is       14.7 secs

     total energy              =     -22.88833654 Ry
     Harris-Foulkes estimate   =     -22.88833654 Ry
     estimated scf accuracy    <          1.2E-18 Ry

     iteration # 15     ecut=    60.00 Ry     beta=0.70
     Davidson diagonalization with overlap
     ethr =  1.00E-13,  avg # of iterations =  1.0

     total cpu time spent up to now is       15.4 secs

     total energy              =     -22.88833654 Ry
     Harris-Foulkes estimate   =     -22.88833654 Ry
     estimated scf accuracy    <          2.5E-19 Ry

     iteration # 16     ecut=    60.00 Ry     beta=0.70
     Davidson diagonalization with overlap
     ethr =  1.00E-13,  avg # of iterations =  1.0

     total cpu time spent up to now is       16.1 secs

     total energy              =     -22.88833654 Ry
     Harris-Foulkes estimate   =     -22.88833654 Ry
     estimated scf accuracy    <          2.9E-19 Ry

     iteration # 17     ecut=    60.00 Ry     beta=0.70
     Davidson diagonalization with overlap
     ethr =  1.00E-13,  avg # of iterations =  1.0

     total cpu time spent up to now is       16.8 secs

     total energy              =     -22.88833654 Ry
     Harris-Foulkes estimate   =     -22.88833654 Ry
     estimated scf accuracy    <          6.4E-20 Ry

     iteration # 18     ecut=    60.00 Ry     beta=0.70
     Davidson diagonalization with overlap
     ethr =  1.00E-13,  avg # of iterations =  1.0

     total cpu time spent up to now is       17.5 secs

     total energy              =     -22.88833654 Ry
     Harris-Foulkes estimate   =     -22.88833654 Ry
     estimated scf accuracy    <          4.3E-20 Ry

     iteration # 19     ecut=    60.00 Ry     beta=0.70
     Davidson diagonalization with overlap
     ethr =  1.00E-13,  avg # of iterations =  1.0

     total cpu time spent up to now is       18.2 secs

     End of self-consistent calculation

     Number of k-points >= 100: set verbosity='high' to print the bands.

     highest occupied level (ev):    13.2968

!    total energy              =     -22.88833654 Ry
     Harris-Foulkes estimate   =     -22.88833654 Ry
     estimated scf accuracy    <          1.3E-21 Ry

     The total energy is the sum of the following terms:

     one-electron contribution =       8.01552249 Ry
     hartree contribution      =       1.90738134 Ry
     xc contribution           =      -7.09639694 Ry
     ewald contribution        =     -25.71484343 Ry

     convergence has been achieved in  19 iterations

     Writing output data file c.save
 
     init_run     :      0.73s CPU      0.82s WALL (       1 calls)
     electrons    :     16.88s CPU     17.23s WALL (       1 calls)

     Called by init_run:
     wfcinit      :      0.70s CPU      0.75s WALL (       1 calls)
     potinit      :      0.00s CPU      0.02s WALL (       1 calls)

     Called by electrons:
     c_bands      :     16.50s CPU     16.80s WALL (      19 calls)
     sum_band     :      0.36s CPU      0.39s WALL (      19 calls)
     v_of_rho     :      0.00s CPU      0.01s WALL (      20 calls)
     mix_rho      :      0.01s CPU      0.01s WALL (      19 calls)

     Called by c_bands:
     init_us_2    :      0.04s CPU      0.04s WALL (    5655 calls)
     cegterg      :     16.30s CPU     16.60s WALL (    2755 calls)

     Called by sum_band:

     Called by *egterg:
     h_psi        :      2.29s CPU      2.36s WALL (    7262 calls)
     g_psi        :      0.01s CPU      0.01s WALL (    4362 calls)
     cdiaghg      :      8.91s CPU      9.03s WALL (    7117 calls)

     Called by h_psi:
     h_psi:pot    :      2.28s CPU      2.35s WALL (    7262 calls)
     h_psi:calbec :      0.22s CPU      0.23s WALL (    7262 calls)
     vloc_psi     :      1.99s CPU      2.04s WALL (    7262 calls)
     add_vuspsi   :      0.05s CPU      0.05s WALL (    7262 calls)

     General routines
     calbec       :      0.20s CPU      0.21s WALL (    7262 calls)
     fft          :      0.01s CPU      0.01s WALL (      79 calls)
     fftw         :      2.19s CPU      2.26s WALL (   68612 calls)
 
     Parallel routines
     fft_scatter  :      1.76s CPU      1.83s WALL (   68691 calls)
 
     PWSCF        :    18.16s CPU        19.97s WALL

 
   This run was terminated on:  19:41: 8   4Jan2021            

=------------------------------------------------------------------------------=
   JOB DONE.
=------------------------------------------------------------------------------=
