
     Program PWSCF v.6.1 (svn rev. 13369) starts on 23Jan2021 at 11:14:35 

     This program is part of the open-source Quantum ESPRESSO suite
     for quantum simulation of materials; please cite
         "P. Giannozzi et al., J. Phys.:Condens. Matter 21 395502 (2009);
          URL http://www.quantum-espresso.org", 
     in publications or presentations arising from this work. More details at
     http://www.quantum-espresso.org/quote

     Parallel version (MPI & OpenMP), running on      40 processor cores
     Number of MPI processes:                40
     Threads/MPI process:                     1
     R & G space division:  proc/nbgrp/npool/nimage =      40
     Waiting for input...
     Reading input from standard input

     Current dimensions of program PWSCF are:
     Max number of different atomic species (ntypx) = 10
     Max number of k-points (npk) =  40000
     Max angular momentum in pseudopotentials (lmaxx) =  3

     IMPORTANT: XC functional enforced from input :
     Exchange-correlation      = PBE ( 1  4  3  4 0 0)
     Any further DFT definition will be discarded
     Please, verify this is what you really want


     Subspace diagonalization in iterative solution of the eigenvalue problem:
     one sub-group per band group will be used
     scalapack distributed-memory algorithm (size of sub-group:  4*  4 procs)

 
     Parallelization info
     --------------------
     sticks:   dense  smooth     PW     G-vecs:    dense   smooth      PW
     Min          69      69     17                 2422     2422     300
     Max          70      70     18                 2425     2425     303
     Sum        2779    2779    691                96917    96917   12051
 


     bravais-lattice index     =            2
     lattice parameter (alat)  =      20.1103  a.u.
     unit-cell volume          =    2033.2657 (a.u.)^3
     number of atoms/cell      =           54
     number of atomic types    =            2
     number of electrons       =       214.00
     number of Kohn-Sham states=          150
     kinetic-energy cutoff     =      50.0000  Ry
     charge density cutoff     =     200.0000  Ry
     convergence threshold     =      1.0E-10
     mixing beta               =       0.7000
     number of iterations used =            8  local-TF  mixing
     Exchange-correlation      = PBE ( 1  4  3  4 0 0)
     nstep                     =           50


     celldm(1)=  20.110277  celldm(2)=   0.000000  celldm(3)=   0.000000
     celldm(4)=   0.000000  celldm(5)=   0.000000  celldm(6)=   0.000000

     crystal axes: (cart. coord. in units of alat)
               a(1) = (  -0.500000   0.000000   0.500000 )  
               a(2) = (   0.000000   0.500000   0.500000 )  
               a(3) = (  -0.500000   0.500000   0.000000 )  

     reciprocal axes: (cart. coord. in units 2 pi/alat)
               b(1) = ( -1.000000 -1.000000  1.000000 )  
               b(2) = (  1.000000  1.000000  1.000000 )  
               b(3) = ( -1.000000  1.000000 -1.000000 )  


     PseudoPot. # 1 for C  read from file:
     ~/PseudoPotential/upf/C_ONCV_PBE-1.0.upf
     MD5 check sum: Not computed, couldn't open file
     Pseudo is Norm-conserving, Zval =  4.0
     Generated using ONCVPSP code by D. R. Hamann
     Using radial grid of  602 points,  4 beta functions with: 
                l(1) =   0
                l(2) =   0
                l(3) =   1
                l(4) =   1

     PseudoPot. # 2 for B  read from file:
     ~/PseudoPotential/upf/B_ONCV_PBE-1.0.upf
     MD5 check sum: Not computed, couldn't open file
     Pseudo is Norm-conserving, Zval =  3.0
     Generated using ONCVPSP code by D. R. Hamann
     Using radial grid of  602 points,  4 beta functions with: 
                l(1) =   0
                l(2) =   0
                l(3) =   1
                l(4) =   1

     atomic species   valence    mass     pseudopotential
        C              4.00    12.01100     C ( 1.00)
        B              3.00    10.81100     B ( 1.00)

     No symmetry found



   Cartesian axes

     site n.     atom                  positions (alat units)
         1           B   tau(   1) = (   0.0000000   0.0000000   0.0000000  )
         2           B   tau(   2) = (  -0.0833333   0.0833333   0.0833333  )
         3           C   tau(   3) = (  -0.1666667   0.1666667   0.0000000  )
         4           C   tau(   4) = (  -0.2500000   0.2500000   0.0833333  )
         5           C   tau(   5) = (  -0.3333333   0.3333333   0.0000000  )
         6           C   tau(   6) = (  -0.4166667   0.4166667   0.0833333  )
         7           C   tau(   7) = (   0.0000000   0.1666667   0.1666667  )
         8           C   tau(   8) = (  -0.0833333   0.2500000   0.2500000  )
         9           C   tau(   9) = (  -0.1666667   0.3333333   0.1666667  )
        10           C   tau(  10) = (  -0.2500000   0.4166667   0.2500000  )
        11           C   tau(  11) = (  -0.3333333   0.5000000   0.1666667  )
        12           C   tau(  12) = (  -0.4166667   0.5833333   0.2500000  )
        13           C   tau(  13) = (   0.0000000   0.3333333   0.3333333  )
        14           C   tau(  14) = (  -0.0833333   0.4166667   0.4166667  )
        15           C   tau(  15) = (  -0.1666667   0.5000000   0.3333333  )
        16           C   tau(  16) = (  -0.2500000   0.5833333   0.4166667  )
        17           C   tau(  17) = (  -0.3333333   0.6666667   0.3333333  )
        18           C   tau(  18) = (  -0.4166667   0.7500000   0.4166667  )
        19           C   tau(  19) = (  -0.1666667   0.0000000   0.1666667  )
        20           C   tau(  20) = (  -0.2500000   0.0833333   0.2500000  )
        21           C   tau(  21) = (  -0.3333333   0.1666667   0.1666667  )
        22           C   tau(  22) = (  -0.4166667   0.2500000   0.2500000  )
        23           C   tau(  23) = (  -0.5000000   0.3333333   0.1666667  )
        24           C   tau(  24) = (  -0.5833333   0.4166667   0.2500000  )
        25           C   tau(  25) = (  -0.1666667   0.1666667   0.3333333  )
        26           C   tau(  26) = (  -0.2500000   0.2500000   0.4166667  )
        27           C   tau(  27) = (  -0.3333333   0.3333333   0.3333333  )
        28           C   tau(  28) = (  -0.4166667   0.4166667   0.4166667  )
        29           C   tau(  29) = (  -0.5000000   0.5000000   0.3333333  )
        30           C   tau(  30) = (  -0.5833333   0.5833333   0.4166667  )
        31           C   tau(  31) = (  -0.1666667   0.3333333   0.5000000  )
        32           C   tau(  32) = (  -0.2500000   0.4166667   0.5833333  )
        33           C   tau(  33) = (  -0.3333333   0.5000000   0.5000000  )
        34           C   tau(  34) = (  -0.4166667   0.5833333   0.5833333  )
        35           C   tau(  35) = (  -0.5000000   0.6666667   0.5000000  )
        36           C   tau(  36) = (  -0.5833333   0.7500000   0.5833333  )
        37           C   tau(  37) = (  -0.3333333   0.0000000   0.3333333  )
        38           C   tau(  38) = (  -0.4166667   0.0833333   0.4166667  )
        39           C   tau(  39) = (  -0.5000000   0.1666667   0.3333333  )
        40           C   tau(  40) = (  -0.5833333   0.2500000   0.4166667  )
        41           C   tau(  41) = (  -0.6666667   0.3333333   0.3333333  )
        42           C   tau(  42) = (  -0.7500000   0.4166667   0.4166667  )
        43           C   tau(  43) = (  -0.3333333   0.1666667   0.5000000  )
        44           C   tau(  44) = (  -0.4166667   0.2500000   0.5833333  )
        45           C   tau(  45) = (  -0.5000000   0.3333333   0.5000000  )
        46           C   tau(  46) = (  -0.5833333   0.4166667   0.5833333  )
        47           C   tau(  47) = (  -0.6666667   0.5000000   0.5000000  )
        48           C   tau(  48) = (  -0.7500000   0.5833333   0.5833333  )
        49           C   tau(  49) = (  -0.3333333   0.3333333   0.6666667  )
        50           C   tau(  50) = (  -0.4166667   0.4166667   0.7500000  )
        51           C   tau(  51) = (  -0.5000000   0.5000000   0.6666667  )
        52           C   tau(  52) = (  -0.5833333   0.5833333   0.7500000  )
        53           C   tau(  53) = (  -0.6666667   0.6666667   0.6666667  )
        54           C   tau(  54) = (  -0.7500000   0.7500000   0.7500000  )

     number of k points=     1
                       cart. coord. in units 2pi/alat
        k(    1) = (   0.0000000   0.0000000   0.0000000), wk =   2.0000000

     Dense  grid:    96917 G-vectors     FFT dimensions: (  72,  72,  72)

     Estimated max dynamical RAM per process >       5.49MB

     Estimated total allocated dynamical RAM >     219.50MB

     Initial potential from superposition of free atoms

     starting charge  213.60353, renormalised to  214.00000
     Starting wfc are random

     total cpu time spent up to now is        0.7 secs

     per-process dynamical memory:    26.1 Mb

     Self-consistent Calculation

     iteration #  1     ecut=    50.00 Ry     beta=0.70
     CG style diagonalization
     ethr =  1.00E-02,  avg # of iterations = 11.7

     total cpu time spent up to now is        3.2 secs

     total energy              =    -601.26423444 Ry
     Harris-Foulkes estimate   =    -602.59233976 Ry
     estimated scf accuracy    <       4.27874833 Ry

     iteration #  2     ecut=    50.00 Ry     beta=0.70
     CG style diagonalization
     ethr =  2.00E-03,  avg # of iterations =  3.9

     negative rho (up, down):  1.507E-05 0.000E+00

     total cpu time spent up to now is        3.9 secs

     total energy              =    -601.90883750 Ry
     Harris-Foulkes estimate   =    -602.26917514 Ry
     estimated scf accuracy    <       0.90568033 Ry

     iteration #  3     ecut=    50.00 Ry     beta=0.70
     CG style diagonalization
     c_bands:  2 eigenvalues not converged
     ethr =  4.23E-04,  avg # of iterations =  4.8

     total cpu time spent up to now is        4.8 secs

     total energy              =    -602.03309894 Ry
     Harris-Foulkes estimate   =    -602.03106423 Ry
     estimated scf accuracy    <       0.01619339 Ry

     iteration #  4     ecut=    50.00 Ry     beta=0.70
     CG style diagonalization
     c_bands:  1 eigenvalues not converged
     ethr =  7.57E-06,  avg # of iterations = 10.8

     total cpu time spent up to now is        6.7 secs

     total energy              =    -602.05001271 Ry
     Harris-Foulkes estimate   =    -602.04981173 Ry
     estimated scf accuracy    <       0.00302288 Ry

     iteration #  5     ecut=    50.00 Ry     beta=0.70
     CG style diagonalization
     c_bands:  2 eigenvalues not converged
     ethr =  1.41E-06,  avg # of iterations =  4.3

     total cpu time spent up to now is        7.5 secs

     total energy              =    -602.05030909 Ry
     Harris-Foulkes estimate   =    -602.05034504 Ry
     estimated scf accuracy    <       0.00034663 Ry

     iteration #  6     ecut=    50.00 Ry     beta=0.70
     CG style diagonalization
     c_bands:  3 eigenvalues not converged
     ethr =  1.62E-07,  avg # of iterations =  5.5

     total cpu time spent up to now is        8.5 secs

     total energy              =    -602.05033759 Ry
     Harris-Foulkes estimate   =    -602.05038531 Ry
     estimated scf accuracy    <       0.00012045 Ry

     iteration #  7     ecut=    50.00 Ry     beta=0.70
     CG style diagonalization
     c_bands:  2 eigenvalues not converged
     ethr =  5.63E-08,  avg # of iterations =  4.2

     total cpu time spent up to now is        9.2 secs

     total energy              =    -602.05034872 Ry
     Harris-Foulkes estimate   =    -602.05035425 Ry
     estimated scf accuracy    <       0.00001965 Ry

     iteration #  8     ecut=    50.00 Ry     beta=0.70
     CG style diagonalization
     c_bands:  3 eigenvalues not converged
     ethr =  9.18E-09,  avg # of iterations =  5.4

     total cpu time spent up to now is       10.2 secs

     total energy              =    -602.05034953 Ry
     Harris-Foulkes estimate   =    -602.05035386 Ry
     estimated scf accuracy    <       0.00000891 Ry

     iteration #  9     ecut=    50.00 Ry     beta=0.70
     CG style diagonalization
     c_bands:  2 eigenvalues not converged
     ethr =  4.16E-09,  avg # of iterations =  4.8

     total cpu time spent up to now is       11.1 secs

     total energy              =    -602.05035149 Ry
     Harris-Foulkes estimate   =    -602.05035249 Ry
     estimated scf accuracy    <       0.00000255 Ry

     iteration # 10     ecut=    50.00 Ry     beta=0.70
     CG style diagonalization
     c_bands:  1 eigenvalues not converged
     ethr =  1.19E-09,  avg # of iterations =  4.6

     total cpu time spent up to now is       11.9 secs

     total energy              =    -602.05035179 Ry
     Harris-Foulkes estimate   =    -602.05035187 Ry
     estimated scf accuracy    <       0.00000018 Ry

     iteration # 11     ecut=    50.00 Ry     beta=0.70
     CG style diagonalization
     c_bands:  3 eigenvalues not converged
     ethr =  8.56E-11,  avg # of iterations =  6.1

     total cpu time spent up to now is       13.0 secs

     total energy              =    -602.05035188 Ry
     Harris-Foulkes estimate   =    -602.05035189 Ry
     estimated scf accuracy    <       0.00000003 Ry

     iteration # 12     ecut=    50.00 Ry     beta=0.70
     CG style diagonalization
     c_bands:  1 eigenvalues not converged
     ethr =  1.39E-11,  avg # of iterations =  4.3

     total cpu time spent up to now is       13.8 secs

     total energy              =    -602.05035188 Ry
     Harris-Foulkes estimate   =    -602.05035188 Ry
     estimated scf accuracy    <          6.7E-09 Ry

     iteration # 13     ecut=    50.00 Ry     beta=0.70
     CG style diagonalization
     c_bands:  3 eigenvalues not converged
     ethr =  3.13E-12,  avg # of iterations =  5.1

     total cpu time spent up to now is       14.7 secs

     total energy              =    -602.05035188 Ry
     Harris-Foulkes estimate   =    -602.05035188 Ry
     estimated scf accuracy    <          1.8E-10 Ry

     iteration # 14     ecut=    50.00 Ry     beta=0.70
     CG style diagonalization
     c_bands:  3 eigenvalues not converged
     ethr =  1.00E-13,  avg # of iterations =  6.7

     total cpu time spent up to now is       16.0 secs

     total energy              =    -602.05035188 Ry
     Harris-Foulkes estimate   =    -602.05035188 Ry
     estimated scf accuracy    <          1.9E-10 Ry

     iteration # 15     ecut=    50.00 Ry     beta=0.70
     CG style diagonalization
     c_bands:  2 eigenvalues not converged
     ethr =  1.00E-13,  avg # of iterations =  4.3

     total cpu time spent up to now is       16.7 secs

     End of self-consistent calculation

          k = 0.0000 0.0000 0.0000 ( 12051 PWs)   bands (ev):

    -8.0177  -5.1285  -5.1170  -5.0529  -5.0529  -5.0210  -5.0210  -4.8802
    -4.6877  -4.0375  -4.0375  -3.9464  -3.9464  -3.7968  -3.0565  -0.6449
    -0.6449  -0.6224  -0.6030  -0.6030  -0.5181  -0.5181  -0.4948  -0.4324
    -0.4324   0.1061   0.8313   2.5090   2.5255   2.5255   2.5364   2.5364
     2.6745   2.6745   2.6746   2.7035   2.7035   3.2408   3.3024   3.9526
     3.9661   4.0088   4.0088   4.0089   4.0452   4.0452   4.0694   4.0816
     4.0816   4.1919   4.1919   4.2238   4.3191   4.3191   4.5800   4.7365
     4.7365   4.8440   5.0610   6.4684   6.4684   6.5216   6.5216   7.0936
     7.6777   8.1720   8.1782   8.1782   8.2140   8.2140   8.2393   8.2624
     8.3226   8.3226   8.3737   8.3737   8.3766   8.8255   8.8255   8.8588
     8.8620   8.8620   8.8999   8.9353   9.1829   9.1829   9.5249   9.5249
     9.6005  11.1684  11.1684  11.2096  11.2096  11.2110  11.2449  11.2525
    11.2525  11.3147  11.3147  11.3790  11.8845  11.8845  12.0694  12.0694
    12.5685  14.0372  14.0372  14.2403  17.8622  17.8622  17.8849  17.8849
    17.9318  18.1501  19.3699  19.3860  19.3860  19.9742  20.0402  20.0402
    20.0517  20.0517  20.1261  20.1261  20.1490  20.1749  20.1749  20.2944
    20.3594  21.4547  21.4547  21.4829  21.4829  21.5862  21.5872  21.9398
    21.9398  21.9571  21.9607  21.9607  21.9822  21.9822  22.0069  22.0523
    22.1424  22.1424  22.2504  22.2840  22.2840  22.3369

     highest occupied, lowest unoccupied level (ev):    14.0372   14.2403

!    total energy              =    -602.05035188 Ry
     Harris-Foulkes estimate   =    -602.05035188 Ry
     estimated scf accuracy    <          2.4E-11 Ry

     The total energy is the sum of the following terms:

     one-electron contribution =     217.96115763 Ry
     hartree contribution      =      52.50401080 Ry
     xc contribution           =    -190.86676084 Ry
     ewald contribution        =    -681.64875948 Ry

     convergence has been achieved in  15 iterations

     Forces acting on atoms (cartesian axes, Ry/au):

     atom    1 type  2   force =     0.14963522   -0.14963504   -0.14963524
     atom    2 type  2   force =    -0.14963494    0.14963524    0.14963555
     atom    3 type  1   force =     0.01016113   -0.01016113   -0.09546142
     atom    4 type  1   force =    -0.02726715    0.02726708    0.03412270
     atom    5 type  1   force =     0.02726713   -0.02726717   -0.03412254
     atom    6 type  1   force =    -0.01016110    0.01016112    0.09546150
     atom    7 type  1   force =     0.09546139   -0.01016126   -0.01016117
     atom    8 type  1   force =    -0.03412254    0.02726709    0.02726702
     atom    9 type  1   force =     0.01502348   -0.01781185   -0.01502360
     atom   10 type  1   force =    -0.01567618    0.02686747    0.01567620
     atom   11 type  1   force =     0.01964743   -0.03026402   -0.01482367
     atom   12 type  1   force =    -0.01482355    0.03026396    0.01964742
     atom   13 type  1   force =     0.03412257   -0.02726708   -0.02726713
     atom   14 type  1   force =    -0.09546137    0.01016127    0.01016123
     atom   15 type  1   force =     0.01482355   -0.03026397   -0.01964749
     atom   16 type  1   force =    -0.01964747    0.03026401    0.01482370
     atom   17 type  1   force =     0.01567619   -0.02686752   -0.01567630
     atom   18 type  1   force =    -0.01502353    0.01781181    0.01502351
     atom   19 type  1   force =     0.01016124   -0.09546136   -0.01016122
     atom   20 type  1   force =    -0.02726713    0.03412255    0.02726702
     atom   21 type  1   force =     0.01781182   -0.01502350   -0.01502362
     atom   22 type  1   force =    -0.02686750    0.01567614    0.01567616
     atom   23 type  1   force =     0.03026408   -0.01964743   -0.01482361
     atom   24 type  1   force =    -0.03026395    0.01482362    0.01964748
     atom   25 type  1   force =     0.01502351   -0.01502356   -0.01781192
     atom   26 type  1   force =    -0.01567618    0.01567614    0.02686748
     atom   27 type  1   force =     0.01226557   -0.01226561   -0.01226574
     atom   28 type  1   force =    -0.01186765    0.01186773    0.01186769
     atom   29 type  1   force =     0.01196082   -0.01196079   -0.01349939
     atom   30 type  1   force =    -0.00846977    0.00846975    0.00978800
     atom   31 type  1   force =     0.01482356   -0.01964746   -0.03026397
     atom   32 type  1   force =    -0.01964753    0.01482362    0.03026407
     atom   33 type  1   force =     0.01349934   -0.01196081   -0.01196077
     atom   34 type  1   force =    -0.00978790    0.00846979    0.00846979
     atom   35 type  1   force =     0.00846979   -0.00978801   -0.00846976
     atom   36 type  1   force =    -0.01196084    0.01349927    0.01196075
     atom   37 type  1   force =     0.02726705   -0.03412250   -0.02726712
     atom   38 type  1   force =    -0.01016125    0.09546140    0.01016123
     atom   39 type  1   force =     0.03026399   -0.01482366   -0.01964751
     atom   40 type  1   force =    -0.03026404    0.01964739    0.01482359
     atom   41 type  1   force =     0.02686754   -0.01567625   -0.01567627
     atom   42 type  1   force =    -0.01781183    0.01502352    0.01502357
     atom   43 type  1   force =     0.01964745   -0.01482362   -0.03026404
     atom   44 type  1   force =    -0.01482357    0.01964747    0.03026405
     atom   45 type  1   force =     0.01196080   -0.01349928   -0.01196074
     atom   46 type  1   force =    -0.00846983    0.00978804    0.00846983
     atom   47 type  1   force =     0.00978794   -0.00846974   -0.00846972
     atom   48 type  1   force =    -0.01349939    0.01196082    0.01196078
     atom   49 type  1   force =     0.01567619   -0.01567618   -0.02686743
     atom   50 type  1   force =    -0.01502357    0.01502358    0.01781184
     atom   51 type  1   force =     0.00846979   -0.00846976   -0.00978800
     atom   52 type  1   force =    -0.01196081    0.01196082    0.01349933
     atom   53 type  1   force =     0.01186762   -0.01186772   -0.01186771
     atom   54 type  1   force =    -0.01226560    0.01226559    0.01226562

     Total force =     0.492254     Total SCF correction =     0.000005


     Computing stress (Cartesian axis) and pressure

          total   stress  (Ry/bohr**3)                   (kbar)     P=   28.96
   0.00019688   0.00005607   0.00005607         28.96      8.25      8.25
   0.00005607   0.00019688  -0.00005607          8.25     28.96     -8.25
   0.00005607  -0.00005607   0.00019688          8.25     -8.25     28.96


     BFGS Geometry Optimization

     number of scf cycles    =   1
     number of bfgs steps    =   0

     enthalpy new            =    -602.0503518818 Ry

     new trust radius        =       0.2591758408 bohr
     new conv_thr            =            1.0E-10 Ry

     new unit-cell volume =   2063.42551 a.u.^3 (   305.76811 Ang^3 )
     density =      3.50929 g/cm^3

CELL_PARAMETERS (alat= 20.11027653)
  -0.501760116  -0.001401865   0.501760127
   0.001401864   0.501760117   0.501760126
  -0.501760116   0.501760118  -0.001401865

ATOMIC_POSITIONS (crystal)
B       -0.007440744  -0.007440726  -0.007440724
B        0.090774069   0.090774098   0.090774038
C       -0.004746897  -0.004746898   0.337069690
C        0.085030116   0.085030109   0.417681647
C       -0.001696769  -0.001696773   0.665651676
C        0.088080233   0.088080236   0.746263638
C       -0.004746891   0.337069680  -0.004746900
C        0.085030102   0.417681649   0.085030108
C       -0.000608407   0.332447618   0.332447631
C        0.083556349   0.418002675   0.418002673
C       -0.000209201   0.332068296   0.664921898
C        0.083542531   0.418411438   0.751265029
C       -0.001696775   0.665651681  -0.001696770
C        0.088080226   0.746263658   0.088080231
C       -0.000209200   0.664921892   0.332068307
C        0.083542538   0.751265037   0.418411435
C       -0.000223019   0.665330652   0.665330663
C        0.083941740   0.750885706   0.750885708
C        0.337069677  -0.004746893  -0.004746895
C        0.417681650   0.085030099   0.085030111
C        0.332447620  -0.000608410   0.332447632
C        0.418002677   0.083556344   0.418002674
C        0.332068296  -0.000209195   0.664921892
C        0.418411437   0.083542537   0.751265029
C        0.332447623   0.332447618  -0.000608402
C        0.418002676   0.418002672   0.083556346
C        0.332723412   0.332723407   0.332723424
C        0.417256793   0.417256801   0.417256798
C        0.332662064   0.332662066   0.666148413
C        0.417153384   0.417153382   0.750355615
C        0.332068305   0.664921893  -0.000209199
C        0.418411445   0.751265033   0.083542534
C        0.332662070   0.666148413   0.332662065
C        0.417153378   0.750355623   0.417153379
C        0.332977717   0.666179951   0.666179948
C        0.417184925   0.750671258   0.750671266
C        0.665651680  -0.001696772  -0.001696766
C        0.746263656   0.088080229   0.088080231
C        0.664921895  -0.000209205   0.332068301
C        0.751265037   0.083542527   0.418411439
C        0.665330655  -0.000223019   0.665330657
C        0.750885710   0.083941742   0.750885705
C        0.664921893   0.332068298  -0.000209198
C        0.751265033   0.418411444   0.083542529
C        0.666148411   0.332662073   0.332662067
C        0.750355620   0.417153385   0.417153385
C        0.666179954   0.332977718   0.666179953
C        0.750671267   0.417184920   0.750671270
C        0.665330661   0.665330663  -0.000223017
C        0.750885708   0.750885709   0.083941744
C        0.666179949   0.666179951   0.332977717
C        0.750671265   0.750671266   0.417184925
C        0.666076540   0.666076530   0.666076539
C        0.750609919   0.750609917   0.750609916



     Writing output data file b.save
     NEW-OLD atomic charge density approx. for the potential
     extrapolated charge  217.12211, renormalised to  214.00000

     total cpu time spent up to now is       17.2 secs

     per-process dynamical memory:    27.2 Mb

     Self-consistent Calculation

     iteration #  1     ecut=    50.00 Ry     beta=0.70
     CG style diagonalization
     c_bands:  3 eigenvalues not converged
     ethr =  1.00E-06,  avg # of iterations = 20.3

     total cpu time spent up to now is       21.1 secs

     total energy              =    -602.13675900 Ry
     Harris-Foulkes estimate   =    -604.21336754 Ry
     estimated scf accuracy    <       0.07878532 Ry

     iteration #  2     ecut=    50.00 Ry     beta=0.70
     CG style diagonalization
     ethr =  3.68E-05,  avg # of iterations =  3.2

     total cpu time spent up to now is       21.7 secs

     total energy              =    -602.13278806 Ry
     Harris-Foulkes estimate   =    -602.14336860 Ry
     estimated scf accuracy    <       0.02414984 Ry

     iteration #  3     ecut=    50.00 Ry     beta=0.70
     CG style diagonalization
     ethr =  1.13E-05,  avg # of iterations =  3.6

     total cpu time spent up to now is       22.4 secs

     total energy              =    -602.13783997 Ry
     Harris-Foulkes estimate   =    -602.13851576 Ry
     estimated scf accuracy    <       0.00166659 Ry

     iteration #  4     ecut=    50.00 Ry     beta=0.70
     CG style diagonalization
     ethr =  7.79E-07,  avg # of iterations =  4.2

     total cpu time spent up to now is       23.1 secs

     total energy              =    -602.13808931 Ry
     Harris-Foulkes estimate   =    -602.13825665 Ry
     estimated scf accuracy    <       0.00043318 Ry

     iteration #  5     ecut=    50.00 Ry     beta=0.70
     CG style diagonalization
     ethr =  2.02E-07,  avg # of iterations =  4.5

     total cpu time spent up to now is       24.0 secs

     total energy              =    -602.13816463 Ry
     Harris-Foulkes estimate   =    -602.13819796 Ry
     estimated scf accuracy    <       0.00009724 Ry

     iteration #  6     ecut=    50.00 Ry     beta=0.70
     CG style diagonalization
     ethr =  4.54E-08,  avg # of iterations =  3.9

     total cpu time spent up to now is       24.7 secs

     total energy              =    -602.13816948 Ry
     Harris-Foulkes estimate   =    -602.13817752 Ry
     estimated scf accuracy    <       0.00001771 Ry

     iteration #  7     ecut=    50.00 Ry     beta=0.70
     CG style diagonalization
     ethr =  8.28E-09,  avg # of iterations =  4.9

     total cpu time spent up to now is       25.6 secs

     total energy              =    -602.13817541 Ry
     Harris-Foulkes estimate   =    -602.13817646 Ry
     estimated scf accuracy    <       0.00000381 Ry

     iteration #  8     ecut=    50.00 Ry     beta=0.70
     CG style diagonalization
     c_bands:  3 eigenvalues not converged
     ethr =  1.78E-09,  avg # of iterations =  4.0

     total cpu time spent up to now is       26.4 secs

     total energy              =    -602.13817475 Ry
     Harris-Foulkes estimate   =    -602.13817566 Ry
     estimated scf accuracy    <       0.00000150 Ry

     iteration #  9     ecut=    50.00 Ry     beta=0.70
     CG style diagonalization
     c_bands:  3 eigenvalues not converged
     ethr =  7.00E-10,  avg # of iterations =  5.0

     total cpu time spent up to now is       27.3 secs

     total energy              =    -602.13817531 Ry
     Harris-Foulkes estimate   =    -602.13817545 Ry
     estimated scf accuracy    <       0.00000039 Ry

     iteration # 10     ecut=    50.00 Ry     beta=0.70
     CG style diagonalization
     c_bands:  3 eigenvalues not converged
     ethr =  1.84E-10,  avg # of iterations =  3.8

     total cpu time spent up to now is       28.0 secs

     total energy              =    -602.13817529 Ry
     Harris-Foulkes estimate   =    -602.13817534 Ry
     estimated scf accuracy    <       0.00000010 Ry

     iteration # 11     ecut=    50.00 Ry     beta=0.70
     CG style diagonalization
     c_bands:  3 eigenvalues not converged
     ethr =  4.56E-11,  avg # of iterations =  5.1

     total cpu time spent up to now is       29.0 secs

     total energy              =    -602.13817533 Ry
     Harris-Foulkes estimate   =    -602.13817533 Ry
     estimated scf accuracy    <       0.00000002 Ry

     iteration # 12     ecut=    50.00 Ry     beta=0.70
     CG style diagonalization
     c_bands:  2 eigenvalues not converged
     ethr =  7.16E-12,  avg # of iterations =  4.0

     total cpu time spent up to now is       29.7 secs

     total energy              =    -602.13817533 Ry
     Harris-Foulkes estimate   =    -602.13817533 Ry
     estimated scf accuracy    <          4.5E-09 Ry

     iteration # 13     ecut=    50.00 Ry     beta=0.70
     CG style diagonalization
     c_bands:  2 eigenvalues not converged
     ethr =  2.11E-12,  avg # of iterations =  4.6

     total cpu time spent up to now is       30.6 secs

     total energy              =    -602.13817533 Ry
     Harris-Foulkes estimate   =    -602.13817533 Ry
     estimated scf accuracy    <          2.7E-10 Ry

     iteration # 14     ecut=    50.00 Ry     beta=0.70
     CG style diagonalization
     c_bands:  2 eigenvalues not converged
     ethr =  1.24E-13,  avg # of iterations =  5.2

     total cpu time spent up to now is       31.6 secs

     End of self-consistent calculation

          k = 0.0000 0.0000 0.0000 ( 12051 PWs)   bands (ev):

    -8.0815  -5.2342  -5.1901  -5.1901  -5.1882  -5.1103  -5.1103  -4.9474
    -4.7497  -4.1343  -4.1343  -4.1169  -4.1169  -3.9122  -3.1425  -0.7744
    -0.7744  -0.7584  -0.7584  -0.7567  -0.7001  -0.6951  -0.6951  -0.6552
    -0.6552  -0.0469   0.7319   2.2875   2.3267   2.3267   2.3498   2.3498
     2.4042   2.4630   2.4630   2.6075   2.6075   3.0955   3.1201   3.8264
     3.8323   3.8585   3.8585   3.8703   3.8703   3.9333   3.9333   3.9577
     4.0010   4.0010   4.0411   4.0533   4.0987   4.0987   4.4943   4.5847
     4.5847   4.7469   5.0720   6.1849   6.1849   6.2928   6.2928   6.7781
     7.6036   7.8413   7.8984   7.8984   7.9008   8.0654   8.0654   8.1699
     8.1699   8.2275   8.2903   8.2903   8.3939   8.4900   8.4920   8.5628
     8.5628   8.7714   8.7714   8.8478   9.0653   9.0653   9.2106   9.2106
     9.7648  10.6926  10.7592  10.7642  10.7642  10.8053  10.8053  11.1879
    11.1879  11.3322  11.3322  11.3324  11.4822  11.4822  11.8411  11.8411
    13.0186  13.3516  13.3516  15.2690  17.5369  17.5707  17.5707  17.6069
    17.6069  17.8011  18.5738  19.3387  19.3387  19.5433  19.6083  19.6083
    19.6978  19.6978  19.7528  19.8150  19.8150  19.9037  19.9853  19.9853
    20.0424  21.0111  21.0291  21.0291  21.1203  21.1203  21.1268  21.1268
    21.1781  21.2843  21.2843  21.3277  21.5295  21.5556  21.5556  21.8055
    21.9343  21.9343  22.0421  22.0421  22.0996  22.4325

     highest occupied, lowest unoccupied level (ev):    13.3516   15.2690

!    total energy              =    -602.13817533 Ry
     Harris-Foulkes estimate   =    -602.13817533 Ry
     estimated scf accuracy    <          1.0E-10 Ry

     The total energy is the sum of the following terms:

     one-electron contribution =     211.77236303 Ry
     hartree contribution      =      53.82338153 Ry
     xc contribution           =    -190.31067188 Ry
     ewald contribution        =    -677.42324800 Ry

     convergence has been achieved in  14 iterations

     Forces acting on atoms (cartesian axes, Ry/au):

     atom    1 type  2   force =     0.00950336   -0.00950376   -0.00950324
     atom    2 type  2   force =    -0.00950361    0.00950361    0.00950306
     atom    3 type  1   force =    -0.02071270    0.02071277    0.01505878
     atom    4 type  1   force =     0.00778108   -0.00778100   -0.02597588
     atom    5 type  1   force =    -0.00778107    0.00778107    0.02597570
     atom    6 type  1   force =     0.02071274   -0.02071280   -0.01505877
     atom    7 type  1   force =    -0.01505845    0.02071301    0.02071289
     atom    8 type  1   force =     0.02597577   -0.00778100   -0.00778097
     atom    9 type  1   force =    -0.01559379    0.02075040    0.01559394
     atom   10 type  1   force =     0.01529761   -0.01883624   -0.01529768
     atom   11 type  1   force =    -0.00875324    0.02333165    0.03053658
     atom   12 type  1   force =     0.03053645   -0.02333166   -0.00875327
     atom   13 type  1   force =    -0.02597583    0.00778101    0.00778104
     atom   14 type  1   force =     0.01505855   -0.02071293   -0.02071286
     atom   15 type  1   force =    -0.03053643    0.02333164    0.00875334
     atom   16 type  1   force =     0.00875331   -0.02333166   -0.03053659
     atom   17 type  1   force =    -0.01529764    0.01883626    0.01529775
     atom   18 type  1   force =     0.01559384   -0.02075037   -0.01559385
     atom   19 type  1   force =    -0.02071285    0.01505856    0.02071290
     atom   20 type  1   force =     0.00778105   -0.02597579   -0.00778098
     atom   21 type  1   force =    -0.02075039    0.01559379    0.01559391
     atom   22 type  1   force =     0.01883628   -0.01529761   -0.01529765
     atom   23 type  1   force =    -0.02333175    0.00875323    0.03053652
     atom   24 type  1   force =     0.02333168   -0.03053651   -0.00875330
     atom   25 type  1   force =    -0.01559379    0.01559383    0.02075048
     atom   26 type  1   force =     0.01529759   -0.01529757   -0.01883639
     atom   27 type  1   force =    -0.01660370    0.01660373    0.01660386
     atom   28 type  1   force =     0.01521097   -0.01521104   -0.01521102
     atom   29 type  1   force =    -0.01941695    0.01941696    0.01307228
     atom   30 type  1   force =     0.01329623   -0.01329623   -0.01297032
     atom   31 type  1   force =    -0.03053651    0.00875328    0.02333168
     atom   32 type  1   force =     0.00875337   -0.03053653   -0.02333178
     atom   33 type  1   force =    -0.01307219    0.01941694    0.01941694
     atom   34 type  1   force =     0.01297020   -0.01329626   -0.01329627
     atom   35 type  1   force =    -0.01329625    0.01297029    0.01329620
     atom   36 type  1   force =     0.01941699   -0.01307209   -0.01941693
     atom   37 type  1   force =    -0.00778100    0.02597575    0.00778106
     atom   38 type  1   force =     0.02071290   -0.01505856   -0.02071290
     atom   39 type  1   force =    -0.02333172    0.03053653    0.00875331
     atom   40 type  1   force =     0.02333171   -0.00875323   -0.03053650
     atom   41 type  1   force =    -0.01883631    0.01529769    0.01529772
     atom   42 type  1   force =     0.02075039   -0.01559384   -0.01559386
     atom   43 type  1   force =    -0.00875329    0.03053656    0.02333177
     atom   44 type  1   force =     0.03053652   -0.00875326   -0.02333175
     atom   45 type  1   force =    -0.01941697    0.01307212    0.01941692
     atom   46 type  1   force =     0.01329626   -0.01297032   -0.01329630
     atom   47 type  1   force =    -0.01297025    0.01329621    0.01329619
     atom   48 type  1   force =     0.01307220   -0.01941695   -0.01941696
     atom   49 type  1   force =    -0.01529764    0.01529762    0.01883632
     atom   50 type  1   force =     0.01559384   -0.01559384   -0.02075041
     atom   51 type  1   force =    -0.01329627    0.01329625    0.01297030
     atom   52 type  1   force =     0.01941693   -0.01941698   -0.01307223
     atom   53 type  1   force =    -0.01521096    0.01521103    0.01521101
     atom   54 type  1   force =     0.01660374   -0.01660374   -0.01660377

     Total force =     0.229409     Total SCF correction =     0.000012


     Computing stress (Cartesian axis) and pressure

          total   stress  (Ry/bohr**3)                   (kbar)     P=  -40.27
  -0.00027374   0.00005655   0.00005655        -40.27      8.32      8.32
   0.00005655  -0.00027374  -0.00005655          8.32    -40.27     -8.32
   0.00005655  -0.00005655  -0.00027374          8.32     -8.32    -40.27


     number of scf cycles    =   2
     number of bfgs steps    =   1

     enthalpy old            =    -602.0503518818 Ry
     enthalpy new            =    -602.1381753265 Ry

     CASE: enthalpy_new < enthalpy_old

     new trust radius        =       0.0520722198 bohr
     new conv_thr            =            3.1E-11 Ry

     new unit-cell volume =   2032.91167 a.u.^3 (   301.24643 Ang^3 )
     density =      3.56197 g/cm^3

CELL_PARAMETERS (alat= 20.11027653)
  -0.498576910  -0.002795971   0.498576912
   0.002795972   0.498576911   0.498576913
  -0.498576905   0.498576905  -0.002795966

ATOMIC_POSITIONS (crystal)
B       -0.008932513  -0.008932526  -0.008932533
B        0.092265846   0.092265879   0.092265856
C       -0.004831539  -0.004831534   0.338707237
C        0.084212039   0.084212037   0.418263885
C       -0.000878701  -0.000878706   0.665069446
C        0.088164875   0.088164874   0.744626087
C       -0.004831548   0.338707257  -0.004831549
C        0.084212032   0.418263887   0.084212036
C       -0.000270863   0.333169580   0.333169582
C        0.083107089   0.417426191   0.417426195
C        0.000414579   0.333738635   0.664723915
C        0.082918756   0.418609415   0.749594695
C       -0.000878701   0.665069443  -0.000878699
C        0.088164877   0.744626090   0.088164876
C        0.000414578   0.664723917   0.333738637
C        0.082918757   0.749594699   0.418609416
C        0.000226244   0.665907137   0.665907140
C        0.083604196   0.750163749   0.750163753
C        0.338707243  -0.004831539  -0.004831545
C        0.418263887   0.084212030   0.084212037
C        0.333169580  -0.000270867   0.333169584
C        0.417426193   0.083107086   0.417426193
C        0.333738638   0.000414578   0.664723913
C        0.418609414   0.082918760   0.749594693
C        0.333169582   0.333169579  -0.000270866
C        0.417426189   0.417426186   0.083107096
C        0.333315249   0.333315245   0.333315252
C        0.416719248   0.416719251   0.416719252
C        0.333099007   0.333099011   0.667131497
C        0.416692619   0.416692617   0.749848555
C        0.333738643   0.664723915   0.000414578
C        0.418609418   0.749594695   0.082918757
C        0.333099011   0.667131499   0.333099006
C        0.416692617   0.749848555   0.416692619
C        0.333484778   0.666640713   0.666640713
C        0.416201834   0.750234322   0.750234327
C        0.665069445  -0.000878700  -0.000878698
C        0.744626088   0.088164876   0.088164879
C        0.664723919   0.000414571   0.333738639
C        0.749594697   0.082918753   0.418609418
C        0.665907139   0.000226242   0.665907139
C        0.750163753   0.083604198   0.750163749
C        0.664723916   0.333738640   0.000414578
C        0.749594692   0.418609421   0.082918756
C        0.667131501   0.333099010   0.333099007
C        0.749848556   0.416692619   0.416692622
C        0.666640716   0.333484779   0.666640716
C        0.750234325   0.416201832   0.750234330
C        0.665907146   0.665907147   0.000226238
C        0.750163750   0.750163752   0.083604203
C        0.666640713   0.666640715   0.333484781
C        0.750234324   0.750234321   0.416201839
C        0.666614085   0.666614078   0.666614085
C        0.750018084   0.750018082   0.750018083



     Writing output data file b.save
     NEW-OLD atomic charge density approx. for the potential
     extrapolated charge  210.79383, renormalised to  214.00000

     total cpu time spent up to now is       32.0 secs

     per-process dynamical memory:    28.3 Mb

     Self-consistent Calculation

     iteration #  1     ecut=    50.00 Ry     beta=0.70
     CG style diagonalization
     c_bands:  1 eigenvalues not converged
     ethr =  1.00E-06,  avg # of iterations = 17.3

     total cpu time spent up to now is       35.6 secs

     total energy              =    -602.14463842 Ry
     Harris-Foulkes estimate   =    -600.05120456 Ry
     estimated scf accuracy    <       0.04435138 Ry

     iteration #  2     ecut=    50.00 Ry     beta=0.70
     CG style diagonalization
     ethr =  2.07E-05,  avg # of iterations =  4.3

     total cpu time spent up to now is       36.4 secs

     total energy              =    -602.15920932 Ry
     Harris-Foulkes estimate   =    -602.15971782 Ry
     estimated scf accuracy    <       0.00169725 Ry

     iteration #  3     ecut=    50.00 Ry     beta=0.70
     CG style diagonalization
     ethr =  7.93E-07,  avg # of iterations =  4.7

     total cpu time spent up to now is       37.3 secs

     total energy              =    -602.15932485 Ry
     Harris-Foulkes estimate   =    -602.15952853 Ry
     estimated scf accuracy    <       0.00041556 Ry

     iteration #  4     ecut=    50.00 Ry     beta=0.70
     CG style diagonalization
     ethr =  1.94E-07,  avg # of iterations =  4.2

     total cpu time spent up to now is       38.1 secs

     total energy              =    -602.15940462 Ry
     Harris-Foulkes estimate   =    -602.15940987 Ry
     estimated scf accuracy    <       0.00001935 Ry

     iteration #  5     ecut=    50.00 Ry     beta=0.70
     CG style diagonalization
     ethr =  9.04E-09,  avg # of iterations =  4.9

     total cpu time spent up to now is       39.0 secs

     total energy              =    -602.15940878 Ry
     Harris-Foulkes estimate   =    -602.15941122 Ry
     estimated scf accuracy    <       0.00000541 Ry

     iteration #  6     ecut=    50.00 Ry     beta=0.70
     CG style diagonalization
     ethr =  2.53E-09,  avg # of iterations =  4.3

     total cpu time spent up to now is       39.8 secs

     total energy              =    -602.15941008 Ry
     Harris-Foulkes estimate   =    -602.15941040 Ry
     estimated scf accuracy    <       0.00000113 Ry

     iteration #  7     ecut=    50.00 Ry     beta=0.70
     CG style diagonalization
     ethr =  5.29E-10,  avg # of iterations =  3.6

     total cpu time spent up to now is       40.5 secs

     total energy              =    -602.15940991 Ry
     Harris-Foulkes estimate   =    -602.15941018 Ry
     estimated scf accuracy    <       0.00000044 Ry

     iteration #  8     ecut=    50.00 Ry     beta=0.70
     CG style diagonalization
     ethr =  2.05E-10,  avg # of iterations =  4.8

     total cpu time spent up to now is       41.4 secs

     total energy              =    -602.15941007 Ry
     Harris-Foulkes estimate   =    -602.15941015 Ry
     estimated scf accuracy    <       0.00000023 Ry

     iteration #  9     ecut=    50.00 Ry     beta=0.70
     CG style diagonalization
     ethr =  1.09E-10,  avg # of iterations =  3.1

     total cpu time spent up to now is       41.9 secs

     total energy              =    -602.15941006 Ry
     Harris-Foulkes estimate   =    -602.15941008 Ry
     estimated scf accuracy    <       0.00000005 Ry

     iteration # 10     ecut=    50.00 Ry     beta=0.70
     CG style diagonalization
     ethr =  2.52E-11,  avg # of iterations =  4.5

     total cpu time spent up to now is       42.8 secs

     total energy              =    -602.15941007 Ry
     Harris-Foulkes estimate   =    -602.15941007 Ry
     estimated scf accuracy    <          8.0E-10 Ry

     iteration # 11     ecut=    50.00 Ry     beta=0.70
     CG style diagonalization
     c_bands:  1 eigenvalues not converged
     ethr =  3.72E-13,  avg # of iterations =  6.4

     total cpu time spent up to now is       44.0 secs

     total energy              =    -602.15941007 Ry
     Harris-Foulkes estimate   =    -602.15941007 Ry
     estimated scf accuracy    <          1.8E-09 Ry

     iteration # 12     ecut=    50.00 Ry     beta=0.70
     CG style diagonalization
     ethr =  3.72E-13,  avg # of iterations =  4.5

     total cpu time spent up to now is       44.9 secs

     total energy              =    -602.15941007 Ry
     Harris-Foulkes estimate   =    -602.15941007 Ry
     estimated scf accuracy    <          8.7E-11 Ry

     iteration # 13     ecut=    50.00 Ry     beta=0.70
     CG style diagonalization
     ethr =  1.00E-13,  avg # of iterations =  3.3

     total cpu time spent up to now is       45.4 secs

     total energy              =    -602.15941007 Ry
     Harris-Foulkes estimate   =    -602.15941007 Ry
     estimated scf accuracy    <          6.1E-11 Ry

     iteration # 14     ecut=    50.00 Ry     beta=0.70
     CG style diagonalization
     ethr =  1.00E-13,  avg # of iterations =  3.1

     total cpu time spent up to now is       46.0 secs

     End of self-consistent calculation

          k = 0.0000 0.0000 0.0000 ( 12051 PWs)   bands (ev):

    -8.0098  -5.1239  -5.1199  -5.1199  -5.0723  -5.0008  -5.0008  -4.8063
    -4.6268  -4.0359  -4.0359  -4.0040  -4.0040  -3.7745  -3.0020  -0.6531
    -0.6531  -0.5969  -0.5893  -0.5893  -0.5313  -0.4960  -0.4960  -0.4746
    -0.4746   0.1424   0.9064   2.5326   2.5738   2.5738   2.5743   2.5743
     2.5819   2.5834   2.5834   2.7201   2.7201   3.2173   3.3023   3.9664
     4.0129   4.0211   4.0211   4.0569   4.0569   4.0698   4.0698   4.1204
     4.1310   4.1310   4.1411   4.1877   4.2314   4.2314   4.5741   4.7878
     4.7878   4.9357   5.2894   6.4554   6.4554   6.5139   6.5139   7.0747
     7.8471   8.0681   8.0982   8.0982   8.1507   8.2568   8.2568   8.3299
     8.3512   8.3512   8.4424   8.4424   8.5481   8.7470   8.7633   8.8014
     8.8014   8.9140   8.9140   8.9437   9.2603   9.2603   9.4417   9.4417
     9.8860  11.0759  11.0759  11.1378  11.1697  11.2061  11.2061  11.3700
    11.3700  11.3742  11.3885  11.3885  11.6975  11.6975  12.0328  12.0328
    13.0573  13.7457  13.7457  15.4542  17.8248  17.8942  17.8942  17.9266
    17.9266  18.1501  19.2574  19.4747  19.4747  19.8313  19.9315  19.9315
    20.0335  20.0335  20.1291  20.1534  20.1534  20.2452  20.3310  20.3310
    20.3818  21.3644  21.4247  21.4247  21.5402  21.5402  21.5640  21.7791
    21.7791  21.9448  21.9448  22.0015  22.0015  22.0389  22.0716  22.0976
    22.1334  22.1334  22.2243  22.2961  22.2961  22.3966

     highest occupied, lowest unoccupied level (ev):    13.7457   15.4542

!    total energy              =    -602.15941007 Ry
     Harris-Foulkes estimate   =    -602.15941007 Ry
     estimated scf accuracy    <          2.2E-12 Ry

     The total energy is the sum of the following terms:

     one-electron contribution =     215.49689805 Ry
     hartree contribution      =      53.83220101 Ry
     xc contribution           =    -190.98166262 Ry
     ewald contribution        =    -680.50684652 Ry

     convergence has been achieved in  14 iterations

     Forces acting on atoms (cartesian axes, Ry/au):

     atom    1 type  2   force =     0.00574424   -0.00574418   -0.00574451
     atom    2 type  2   force =    -0.00574435    0.00574405    0.00574447
     atom    3 type  1   force =    -0.00621186    0.00621183    0.00461991
     atom    4 type  1   force =     0.00469279   -0.00469276   -0.00329343
     atom    5 type  1   force =    -0.00469277    0.00469279    0.00329339
     atom    6 type  1   force =     0.00621183   -0.00621183   -0.00461997
     atom    7 type  1   force =    -0.00462005    0.00621188    0.00621182
     atom    8 type  1   force =     0.00329337   -0.00469278   -0.00469275
     atom    9 type  1   force =    -0.00052501    0.00492978    0.00052503
     atom   10 type  1   force =    -0.00025815   -0.00206928    0.00025820
     atom   11 type  1   force =     0.00170941    0.00356206    0.00420155
     atom   12 type  1   force =     0.00420162   -0.00356206    0.00170947
     atom   13 type  1   force =    -0.00329336    0.00469280    0.00469280
     atom   14 type  1   force =     0.00462000   -0.00621191   -0.00621186
     atom   15 type  1   force =    -0.00420161    0.00356208   -0.00170943
     atom   16 type  1   force =    -0.00170939   -0.00356206   -0.00420156
     atom   17 type  1   force =     0.00025819    0.00206930   -0.00025813
     atom   18 type  1   force =     0.00052501   -0.00492976   -0.00052502
     atom   19 type  1   force =    -0.00621185    0.00462006    0.00621179
     atom   20 type  1   force =     0.00469280   -0.00329333   -0.00469274
     atom   21 type  1   force =    -0.00492973    0.00052501    0.00052507
     atom   22 type  1   force =     0.00206926    0.00025818    0.00025819
     atom   23 type  1   force =    -0.00356205   -0.00170945    0.00420155
     atom   24 type  1   force =     0.00356200   -0.00420165    0.00170945
     atom   25 type  1   force =    -0.00052506    0.00052505    0.00492972
     atom   26 type  1   force =    -0.00025815    0.00025815   -0.00206918
     atom   27 type  1   force =     0.00087121   -0.00087119   -0.00087120
     atom   28 type  1   force =    -0.00466821    0.00466817    0.00466824
     atom   29 type  1   force =     0.00320138   -0.00320142    0.00026725
     atom   30 type  1   force =    -0.00359826    0.00359825    0.00283786
     atom   31 type  1   force =    -0.00420158   -0.00170944    0.00356196
     atom   32 type  1   force =    -0.00170943   -0.00420159   -0.00356198
     atom   33 type  1   force =    -0.00026727   -0.00320139   -0.00320145
     atom   34 type  1   force =    -0.00283787    0.00359825    0.00359826
     atom   35 type  1   force =     0.00359824   -0.00283782   -0.00359828
     atom   36 type  1   force =    -0.00320142   -0.00026727    0.00320142
     atom   37 type  1   force =    -0.00469277    0.00329332    0.00469279
     atom   38 type  1   force =     0.00621184   -0.00462009   -0.00621179
     atom   39 type  1   force =    -0.00356201    0.00420166   -0.00170943
     atom   40 type  1   force =     0.00356205    0.00170947   -0.00420154
     atom   41 type  1   force =    -0.00206928   -0.00025815   -0.00025815
     atom   42 type  1   force =     0.00492973   -0.00052501   -0.00052508
     atom   43 type  1   force =     0.00170945    0.00420160    0.00356195
     atom   44 type  1   force =     0.00420160    0.00170946   -0.00356198
     atom   45 type  1   force =     0.00320142    0.00026728   -0.00320145
     atom   46 type  1   force =    -0.00359822    0.00283783    0.00359825
     atom   47 type  1   force =     0.00283785   -0.00359826   -0.00359829
     atom   48 type  1   force =     0.00026730    0.00320140    0.00320144
     atom   49 type  1   force =     0.00025818   -0.00025812    0.00206917
     atom   50 type  1   force =     0.00052507   -0.00052505   -0.00492970
     atom   51 type  1   force =     0.00359825   -0.00359825   -0.00283786
     atom   52 type  1   force =    -0.00320139    0.00320140   -0.00026724
     atom   53 type  1   force =     0.00466823   -0.00466818   -0.00466822
     atom   54 type  1   force =    -0.00087121    0.00087121    0.00087123

     Total force =     0.046429     Total SCF correction =     0.000003


     Computing stress (Cartesian axis) and pressure

          total   stress  (Ry/bohr**3)                   (kbar)     P=   32.28
   0.00021942  -0.00009617  -0.00009617         32.28    -14.15    -14.15
  -0.00009617   0.00021942   0.00009617        -14.15     32.28     14.15
  -0.00009617   0.00009617   0.00021942        -14.15     14.15     32.28


     number of scf cycles    =   3
     number of bfgs steps    =   2

     enthalpy old            =    -602.1381753265 Ry
     enthalpy new            =    -602.1594100736 Ry

     CASE: enthalpy_new < enthalpy_old

     new trust radius        =       0.0422085554 bohr
     new conv_thr            =            6.2E-12 Ry

     new unit-cell volume =   2056.17955 a.u.^3 (   304.69437 Ang^3 )
     density =      3.52166 g/cm^3

CELL_PARAMETERS (alat= 20.11027653)
  -0.501429630  -0.000883980   0.501429628
   0.000883981   0.501429633   0.501429629
  -0.501429636   0.501429637  -0.000883986

ATOMIC_POSITIONS (crystal)
B       -0.009387963  -0.009387977  -0.009387963
B        0.092721306   0.092721313   0.092721289
C       -0.004561366  -0.004561362   0.339352084
C        0.083855694   0.083855696   0.418101141
C       -0.000522362  -0.000522365   0.665232194
C        0.087894701   0.087894699   0.743981242
C       -0.004561376   0.339352106  -0.004561370
C        0.083855694   0.418101141   0.083855695
C       -0.000361751   0.333565307   0.333565304
C        0.083121203   0.417183057   0.417183058
C        0.000506384   0.334554377   0.664604056
C        0.082826950   0.418729278   0.748778949
C       -0.000522361   0.665232192  -0.000522359
C        0.087894705   0.743981238   0.087894700
C        0.000506384   0.664604058   0.334554381
C        0.082826949   0.748778958   0.418729274
C        0.000212131   0.666150277   0.666150273
C        0.083695083   0.749768025   0.749768030
C        0.339352086  -0.004561364  -0.004561366
C        0.418101139   0.083855694   0.083855695
C        0.333565306  -0.000361751   0.333565303
C        0.417183059   0.083121200   0.417183058
C        0.334554381   0.000506381   0.664604054
C        0.418729280   0.082826949   0.748778949
C        0.333565304   0.333565301  -0.000361749
C        0.417183056   0.417183054   0.083121206
C        0.333417054   0.333417052   0.333417055
C        0.416799517   0.416799516   0.416799515
C        0.333219600   0.333219600   0.667056697
C        0.416709532   0.416709529   0.749926145
C        0.334554382   0.664604050   0.000506388
C        0.418729280   0.748778955   0.082826946
C        0.333219599   0.667056698   0.333219599
C        0.416709531   0.749926144   0.416709533
C        0.333407186   0.666623799   0.666623804
C        0.416276634   0.750113733   0.750113736
C        0.665232195  -0.000522362  -0.000522362
C        0.743981246   0.087894700   0.087894698
C        0.664604054   0.000506383   0.334554384
C        0.748778954   0.082826951   0.418729278
C        0.666150276   0.000212130   0.666150275
C        0.749768028   0.083695082   0.749768031
C        0.664604051   0.334554381   0.000506389
C        0.748778949   0.418729286   0.082826947
C        0.667056699   0.333219599   0.333219600
C        0.749926146   0.416709531   0.416709533
C        0.666623802   0.333407186   0.666623804
C        0.750113735   0.416276634   0.750113736
C        0.666150275   0.666150280   0.000212130
C        0.749768029   0.749768032   0.083695084
C        0.666623800   0.666623802   0.333407191
C        0.750113735   0.750113731   0.416276637
C        0.666533816   0.666533815   0.666533820
C        0.749916280   0.749916279   0.749916278



     Writing output data file b.save
     NEW-OLD atomic charge density approx. for the potential
     extrapolated charge  216.41715, renormalised to  214.00000

     total cpu time spent up to now is       46.4 secs

     per-process dynamical memory:    29.3 Mb

     Self-consistent Calculation

     iteration #  1     ecut=    50.00 Ry     beta=0.70
     CG style diagonalization
     c_bands:  3 eigenvalues not converged
     ethr =  1.00E-06,  avg # of iterations = 10.4

     total cpu time spent up to now is       48.7 secs

     total energy              =    -602.15680168 Ry
     Harris-Foulkes estimate   =    -603.74127818 Ry
     estimated scf accuracy    <       0.00303139 Ry

     iteration #  2     ecut=    50.00 Ry     beta=0.70
     CG style diagonalization
     ethr =  1.42E-06,  avg # of iterations =  5.4

     total cpu time spent up to now is       49.7 secs

     total energy              =    -602.16143025 Ry
     Harris-Foulkes estimate   =    -602.16193960 Ry
     estimated scf accuracy    <       0.00341960 Ry

     iteration #  3     ecut=    50.00 Ry     beta=0.70
     CG style diagonalization
     ethr =  1.42E-06,  avg # of iterations =  3.0

     total cpu time spent up to now is       50.2 secs

     total energy              =    -602.16091216 Ry
     Harris-Foulkes estimate   =    -602.16151278 Ry
     estimated scf accuracy    <       0.00171208 Ry

     iteration #  4     ecut=    50.00 Ry     beta=0.70
     CG style diagonalization
     ethr =  8.00E-07,  avg # of iterations =  3.4

     total cpu time spent up to now is       50.8 secs

     total energy              =    -602.16110644 Ry
     Harris-Foulkes estimate   =    -602.16112119 Ry
     estimated scf accuracy    <       0.00006481 Ry

     iteration #  5     ecut=    50.00 Ry     beta=0.70
     CG style diagonalization
     ethr =  3.03E-08,  avg # of iterations =  4.9

     total cpu time spent up to now is       51.8 secs

     total energy              =    -602.16110939 Ry
     Harris-Foulkes estimate   =    -602.16111694 Ry
     estimated scf accuracy    <       0.00002079 Ry

     iteration #  6     ecut=    50.00 Ry     beta=0.70
     CG style diagonalization
     ethr =  9.71E-09,  avg # of iterations =  4.1

     total cpu time spent up to now is       52.6 secs

     total energy              =    -602.16111314 Ry
     Harris-Foulkes estimate   =    -602.16111347 Ry
     estimated scf accuracy    <       0.00000096 Ry

     iteration #  7     ecut=    50.00 Ry     beta=0.70
     CG style diagonalization
     ethr =  4.49E-10,  avg # of iterations =  5.4

     total cpu time spent up to now is       53.6 secs

     total energy              =    -602.16111351 Ry
     Harris-Foulkes estimate   =    -602.16111360 Ry
     estimated scf accuracy    <       0.00000023 Ry

     iteration #  8     ecut=    50.00 Ry     beta=0.70
     CG style diagonalization
     ethr =  1.07E-10,  avg # of iterations =  4.3

     total cpu time spent up to now is       54.4 secs

     total energy              =    -602.16111353 Ry
     Harris-Foulkes estimate   =    -602.16111354 Ry
     estimated scf accuracy    <       0.00000002 Ry

     iteration #  9     ecut=    50.00 Ry     beta=0.70
     CG style diagonalization
     ethr =  1.08E-11,  avg # of iterations =  5.0

     total cpu time spent up to now is       55.4 secs

     total energy              =    -602.16111354 Ry
     Harris-Foulkes estimate   =    -602.16111354 Ry
     estimated scf accuracy    <          3.7E-09 Ry

     iteration # 10     ecut=    50.00 Ry     beta=0.70
     CG style diagonalization
     ethr =  1.73E-12,  avg # of iterations =  4.2

     total cpu time spent up to now is       56.2 secs

     total energy              =    -602.16111354 Ry
     Harris-Foulkes estimate   =    -602.16111354 Ry
     estimated scf accuracy    <          4.0E-10 Ry

     iteration # 11     ecut=    50.00 Ry     beta=0.70
     CG style diagonalization
     ethr =  1.88E-13,  avg # of iterations =  5.1

     total cpu time spent up to now is       57.2 secs

     total energy              =    -602.16111354 Ry
     Harris-Foulkes estimate   =    -602.16111354 Ry
     estimated scf accuracy    <          4.9E-11 Ry

     iteration # 12     ecut=    50.00 Ry     beta=0.70
     CG style diagonalization
     ethr =  1.00E-13,  avg # of iterations =  3.0

     total cpu time spent up to now is       57.7 secs

     total energy              =    -602.16111354 Ry
     Harris-Foulkes estimate   =    -602.16111354 Ry
     estimated scf accuracy    <          7.0E-12 Ry

     iteration # 13     ecut=    50.00 Ry     beta=0.70
     CG style diagonalization
     ethr =  1.00E-13,  avg # of iterations =  3.0

     total cpu time spent up to now is       58.2 secs

     End of self-consistent calculation

          k = 0.0000 0.0000 0.0000 ( 12051 PWs)   bands (ev):

    -8.0635  -5.1965  -5.1965  -5.1962  -5.1754  -5.0632  -5.0632  -4.9012
    -4.7053  -4.1244  -4.1244  -4.0852  -4.0852  -3.8640  -3.0743  -0.7543
    -0.7543  -0.7231  -0.7231  -0.6925  -0.6848  -0.6260  -0.6260  -0.6019
    -0.6019   0.0057   0.7815   2.4098   2.4407   2.4407   2.4428   2.4428
     2.4467   2.4467   2.4703   2.5627   2.5627   3.1170   3.1507   3.8699
     3.9193   3.9193   3.9212   3.9583   3.9583   3.9637   3.9815   3.9815
     4.0075   4.0260   4.0260   4.0278   4.1172   4.1172   4.4058   4.7057
     4.7057   4.7768   5.1607   6.2949   6.2949   6.3290   6.3290   6.9498
     7.6504   7.9818   8.0022   8.0022   8.0595   8.0595   8.0784   8.1239
     8.2407   8.2407   8.2500   8.2500   8.3569   8.6607   8.6727   8.6833
     8.6833   8.7201   8.7201   8.7282   9.0681   9.0681   9.3194   9.3194
     9.6817  10.9631  10.9631  11.0091  11.0395  11.0480  11.0480  11.1285
    11.1285  11.1328  11.1652  11.1652  11.5625  11.5625  11.8081  11.8081
    12.8166  13.5926  13.5926  15.1718  17.5847  17.6595  17.6595  17.7209
    17.7209  17.9261  19.0165  19.2514  19.2514  19.5934  19.7656  19.7656
    19.8298  19.8401  19.8401  19.8730  19.8730  20.0471  20.0471  20.0772
    20.1157  21.1375  21.1698  21.1698  21.3120  21.3176  21.3176  21.5714
    21.5714  21.7222  21.7222  21.7305  21.7305  21.7783  21.7810  21.8234
    21.8590  21.8590  21.9581  22.0282  22.0282  22.0372

     highest occupied, lowest unoccupied level (ev):    13.5926   15.1718

!    total energy              =    -602.16111354 Ry
     Harris-Foulkes estimate   =    -602.16111354 Ry
     estimated scf accuracy    <          2.3E-12 Ry

     The total energy is the sum of the following terms:

     one-electron contribution =     211.77803671 Ry
     hartree contribution      =      54.31206345 Ry
     xc contribution           =    -190.49805213 Ry
     ewald contribution        =    -677.75316157 Ry

     convergence has been achieved in  13 iterations

     Forces acting on atoms (cartesian axes, Ry/au):

     atom    1 type  2   force =     0.00782293   -0.00782276   -0.00782280
     atom    2 type  2   force =    -0.00782284    0.00782285    0.00782277
     atom    3 type  1   force =     0.00175055   -0.00175053   -0.00459167
     atom    4 type  1   force =    -0.00326352    0.00326349    0.00498581
     atom    5 type  1   force =     0.00326352   -0.00326349   -0.00498579
     atom    6 type  1   force =    -0.00175057    0.00175054    0.00459166
     atom    7 type  1   force =     0.00459162   -0.00175064   -0.00175055
     atom    8 type  1   force =    -0.00498581    0.00326352    0.00326350
     atom    9 type  1   force =     0.00311902   -0.00451798   -0.00311902
     atom   10 type  1   force =    -0.00361101    0.00446812    0.00361102
     atom   11 type  1   force =     0.00290100   -0.00510020   -0.00587658
     atom   12 type  1   force =    -0.00587660    0.00510027    0.00290101
     atom   13 type  1   force =     0.00498582   -0.00326352   -0.00326350
     atom   14 type  1   force =    -0.00459168    0.00175059    0.00175052
     atom   15 type  1   force =     0.00587659   -0.00510026   -0.00290102
     atom   16 type  1   force =    -0.00290101    0.00510021    0.00587658
     atom   17 type  1   force =     0.00361101   -0.00446812   -0.00361102
     atom   18 type  1   force =    -0.00311901    0.00451798    0.00311902
     atom   19 type  1   force =     0.00175057   -0.00459174   -0.00175050
     atom   20 type  1   force =    -0.00326352    0.00498579    0.00326350
     atom   21 type  1   force =     0.00451795   -0.00311901   -0.00311903
     atom   22 type  1   force =    -0.00446810    0.00361100    0.00361102
     atom   23 type  1   force =     0.00510020   -0.00290097   -0.00587657
     atom   24 type  1   force =    -0.00510024    0.00587664    0.00290099
     atom   25 type  1   force =     0.00311904   -0.00311900   -0.00451794
     atom   26 type  1   force =    -0.00361100    0.00361097    0.00446811
     atom   27 type  1   force =     0.00252127   -0.00252128   -0.00252128
     atom   28 type  1   force =    -0.00398388    0.00398389    0.00398387
     atom   29 type  1   force =     0.00421250   -0.00421252   -0.00061861
     atom   30 type  1   force =    -0.00199170    0.00199171    0.00252686
     atom   31 type  1   force =     0.00587662   -0.00290102   -0.00510017
     atom   32 type  1   force =    -0.00290101    0.00587664    0.00510018
     atom   33 type  1   force =     0.00061859   -0.00421250   -0.00421247
     atom   34 type  1   force =    -0.00252686    0.00199170    0.00199169
     atom   35 type  1   force =     0.00199170   -0.00252687   -0.00199166
     atom   36 type  1   force =    -0.00421249    0.00061857    0.00421248
     atom   37 type  1   force =     0.00326351   -0.00498578   -0.00326350
     atom   38 type  1   force =    -0.00175061    0.00459170    0.00175052
     atom   39 type  1   force =     0.00510024   -0.00587664   -0.00290098
     atom   40 type  1   force =    -0.00510020    0.00290097    0.00587657
     atom   41 type  1   force =     0.00446810   -0.00361101   -0.00361101
     atom   42 type  1   force =    -0.00451796    0.00311902    0.00311903
     atom   43 type  1   force =     0.00290099   -0.00587666   -0.00510018
     atom   44 type  1   force =    -0.00587663    0.00290101    0.00510017
     atom   45 type  1   force =     0.00421249   -0.00061857   -0.00421248
     atom   46 type  1   force =    -0.00199170    0.00252687    0.00199167
     atom   47 type  1   force =     0.00252687   -0.00199170   -0.00199168
     atom   48 type  1   force =    -0.00061858    0.00421250    0.00421246
     atom   49 type  1   force =     0.00361101   -0.00361098   -0.00446810
     atom   50 type  1   force =    -0.00311904    0.00311901    0.00451793
     atom   51 type  1   force =     0.00199170   -0.00199172   -0.00252685
     atom   52 type  1   force =    -0.00421249    0.00421253    0.00061860
     atom   53 type  1   force =     0.00398388   -0.00398389   -0.00398385
     atom   54 type  1   force =    -0.00252127    0.00252129    0.00252128

     Total force =     0.050842     Total SCF correction =     0.000004


     Computing stress (Cartesian axis) and pressure

          total   stress  (Ry/bohr**3)                   (kbar)     P=  -22.98
  -0.00015623   0.00004247   0.00004247        -22.98      6.25      6.25
   0.00004247  -0.00015623  -0.00004247          6.25    -22.98     -6.25
   0.00004247  -0.00004247  -0.00015623          6.25     -6.25    -22.98


     number of scf cycles    =   4
     number of bfgs steps    =   3

     enthalpy old            =    -602.1594100736 Ry
     enthalpy new            =    -602.1611135413 Ry

     CASE: enthalpy_new < enthalpy_old

     new trust radius        =       0.0166744528 bohr
     new conv_thr            =            7.8E-12 Ry

     new unit-cell volume =   2045.39740 a.u.^3 (   303.09662 Ang^3 )
     density =      3.54023 g/cm^3

CELL_PARAMETERS (alat= 20.11027653)
  -0.500353039  -0.001280486   0.500353039
   0.001280485   0.500353039   0.500353039
  -0.500353038   0.500353039  -0.001280485

ATOMIC_POSITIONS (crystal)
B       -0.009606530  -0.009606532  -0.009606523
B        0.092939867   0.092939872   0.092939849
C       -0.004676927  -0.004676922   0.339373635
C        0.084014045   0.084014046   0.418104564
C       -0.000680713  -0.000680714   0.665228770
C        0.088010262   0.088010257   0.743959694
C       -0.004676931   0.339373650  -0.004676931
C        0.084014044   0.418104565   0.084014046
C       -0.000439762   0.333430914   0.333430912
C        0.083227774   0.417324360   0.417324360
C        0.000373772   0.334306431   0.664535547
C        0.082959560   0.418797789   0.749026896
C       -0.000680711   0.665228769  -0.000680711
C        0.088010263   0.743959689   0.088010262
C        0.000373773   0.664535546   0.334306434
C        0.082959561   0.749026904   0.418797784
C        0.000105560   0.666008975   0.666008971
C        0.083773095   0.749902418   0.749902423
C        0.339373637  -0.004676924  -0.004676930
C        0.418104563   0.084014044   0.084014046
C        0.333430913  -0.000439763   0.333430911
C        0.417324361   0.083227771   0.417324359
C        0.334306435   0.000373771   0.664535545
C        0.418797789   0.082959561   0.749026898
C        0.333430912   0.333430910  -0.000439761
C        0.417324359   0.417324356   0.083227775
C        0.333321052   0.333321050   0.333321054
C        0.416954558   0.416954558   0.416954557
C        0.333190380   0.333190379   0.666765018
C        0.416810652   0.416810650   0.750002936
C        0.334306436   0.664535542   0.000373774
C        0.418797787   0.749026902   0.082959560
C        0.333190380   0.666765019   0.333190378
C        0.416810652   0.750002934   0.416810654
C        0.333330397   0.666522680   0.666522682
C        0.416568314   0.750142952   0.750142955
C        0.665228771  -0.000680711  -0.000680712
C        0.743959698   0.088010258   0.088010261
C        0.664535546   0.000373771   0.334306435
C        0.749026900   0.082959562   0.418797786
C        0.666008974   0.000105560   0.666008974
C        0.749902420   0.083773094   0.749902423
C        0.664535544   0.334306433   0.000373775
C        0.749026895   0.418797794   0.082959561
C        0.666765019   0.333190380   0.333190380
C        0.750002935   0.416810652   0.416810654
C        0.666522682   0.333330396   0.666522683
C        0.750142953   0.416568313   0.750142957
C        0.666008972   0.666008979   0.000105560
C        0.749902421   0.749902423   0.083773097
C        0.666522680   0.666522681   0.333330400
C        0.750142954   0.750142953   0.416568316
C        0.666378775   0.666378774   0.666378777
C        0.750012282   0.750012282   0.750012280



     Writing output data file b.save
     NEW-OLD atomic charge density approx. for the potential
     extrapolated charge  212.87401, renormalised to  214.00000

     total cpu time spent up to now is       58.7 secs

     per-process dynamical memory:    29.3 Mb

     Self-consistent Calculation

     iteration #  1     ecut=    50.00 Ry     beta=0.70
     CG style diagonalization
     c_bands:  3 eigenvalues not converged
     ethr =  1.00E-06,  avg # of iterations =  7.9

     total cpu time spent up to now is       60.4 secs

     total energy              =    -602.16165093 Ry
     Harris-Foulkes estimate   =    -601.42488001 Ry
     estimated scf accuracy    <       0.00122809 Ry

     iteration #  2     ecut=    50.00 Ry     beta=0.70
     CG style diagonalization
     ethr =  5.74E-07,  avg # of iterations =  5.2

     total cpu time spent up to now is       61.4 secs

     total energy              =    -602.16287838 Ry
     Harris-Foulkes estimate   =    -602.16297376 Ry
     estimated scf accuracy    <       0.00049928 Ry

     iteration #  3     ecut=    50.00 Ry     beta=0.70
     CG style diagonalization
     ethr =  2.33E-07,  avg # of iterations =  3.1

     total cpu time spent up to now is       61.9 secs

     total energy              =    -602.16283655 Ry
     Harris-Foulkes estimate   =    -602.16290172 Ry
     estimated scf accuracy    <       0.00019262 Ry

     iteration #  4     ecut=    50.00 Ry     beta=0.70
     CG style diagonalization
     ethr =  9.00E-08,  avg # of iterations =  3.7

     total cpu time spent up to now is       62.6 secs

     total energy              =    -602.16285784 Ry
     Harris-Foulkes estimate   =    -602.16285956 Ry
     estimated scf accuracy    <       0.00001085 Ry

     iteration #  5     ecut=    50.00 Ry     beta=0.70
     CG style diagonalization
     ethr =  5.07E-09,  avg # of iterations =  4.4

     total cpu time spent up to now is       63.4 secs

     total energy              =    -602.16285785 Ry
     Harris-Foulkes estimate   =    -602.16285933 Ry
     estimated scf accuracy    <       0.00000545 Ry

     iteration #  6     ecut=    50.00 Ry     beta=0.70
     CG style diagonalization
     ethr =  2.55E-09,  avg # of iterations =  3.6

     total cpu time spent up to now is       64.1 secs

     total energy              =    -602.16285801 Ry
     Harris-Foulkes estimate   =    -602.16285837 Ry
     estimated scf accuracy    <       0.00000106 Ry

     iteration #  7     ecut=    50.00 Ry     beta=0.70
     CG style diagonalization
     ethr =  4.95E-10,  avg # of iterations =  4.3

     total cpu time spent up to now is       64.9 secs

     total energy              =    -602.16285820 Ry
     Harris-Foulkes estimate   =    -602.16285822 Ry
     estimated scf accuracy    <       0.00000006 Ry

     iteration #  8     ecut=    50.00 Ry     beta=0.70
     CG style diagonalization
     ethr =  2.61E-11,  avg # of iterations =  5.3

     total cpu time spent up to now is       65.9 secs

     total energy              =    -602.16285822 Ry
     Harris-Foulkes estimate   =    -602.16285823 Ry
     estimated scf accuracy    <       0.00000003 Ry

     iteration #  9     ecut=    50.00 Ry     beta=0.70
     CG style diagonalization
     ethr =  1.21E-11,  avg # of iterations =  4.2

     total cpu time spent up to now is       66.7 secs

     total energy              =    -602.16285822 Ry
     Harris-Foulkes estimate   =    -602.16285822 Ry
     estimated scf accuracy    <          1.1E-09 Ry

     iteration # 10     ecut=    50.00 Ry     beta=0.70
     CG style diagonalization
     ethr =  5.06E-13,  avg # of iterations =  5.5

     total cpu time spent up to now is       67.8 secs

     total energy              =    -602.16285822 Ry
     Harris-Foulkes estimate   =    -602.16285822 Ry
     estimated scf accuracy    <          4.5E-10 Ry

     iteration # 11     ecut=    50.00 Ry     beta=0.70
     CG style diagonalization
     ethr =  2.12E-13,  avg # of iterations =  3.3

     total cpu time spent up to now is       68.4 secs

     total energy              =    -602.16285822 Ry
     Harris-Foulkes estimate   =    -602.16285822 Ry
     estimated scf accuracy    <          1.6E-10 Ry

     iteration # 12     ecut=    50.00 Ry     beta=0.70
     CG style diagonalization
     ethr =  1.00E-13,  avg # of iterations =  4.5

     total cpu time spent up to now is       69.2 secs

     total energy              =    -602.16285822 Ry
     Harris-Foulkes estimate   =    -602.16285822 Ry
     estimated scf accuracy    <          4.1E-11 Ry

     iteration # 13     ecut=    50.00 Ry     beta=0.70
     CG style diagonalization
     ethr =  1.00E-13,  avg # of iterations =  3.0

     total cpu time spent up to now is       69.7 secs

     total energy              =    -602.16285822 Ry
     Harris-Foulkes estimate   =    -602.16285822 Ry
     estimated scf accuracy    <          8.3E-12 Ry

     iteration # 14     ecut=    50.00 Ry     beta=0.70
     CG style diagonalization
     ethr =  1.00E-13,  avg # of iterations =  3.0

     total cpu time spent up to now is       70.2 secs

     End of self-consistent calculation

          k = 0.0000 0.0000 0.0000 ( 12051 PWs)   bands (ev):

    -8.0403  -5.1622  -5.1622  -5.1619  -5.1369  -5.0288  -5.0288  -4.8691
    -4.6731  -4.0847  -4.0847  -4.0451  -4.0451  -3.8320  -3.0274  -0.6983
    -0.6983  -0.6625  -0.6625  -0.6359  -0.6350  -0.5678  -0.5678  -0.5521
    -0.5521   0.0671   0.8417   2.4608   2.4972   2.4972   2.4986   2.4986
     2.5182   2.5182   2.5313   2.6284   2.6284   3.1751   3.2056   3.9138
     3.9638   3.9672   3.9672   4.0051   4.0051   4.0254   4.0254   4.0365
     4.0648   4.0715   4.0715   4.0872   4.1603   4.1603   4.4744   4.7569
     4.7569   4.8530   5.2361   6.3693   6.3693   6.4092   6.4092   7.0214
     7.7366   8.0279   8.0492   8.0492   8.1202   8.1452   8.1452   8.2123
     8.2870   8.2870   8.3366   8.3366   8.4454   8.7103   8.7166   8.7315
     8.7315   8.8065   8.8065   8.8266   9.1534   9.1534   9.3816   9.3816
     9.7918  11.0216  11.0216  11.0607  11.0839  11.0915  11.0915  11.2558
    11.2558  11.2596  11.2617  11.2617  11.6338  11.6338  11.9013  11.9013
    12.9730  13.6531  13.6531  15.3417  17.6833  17.7649  17.7649  17.8252
    17.8252  18.0304  19.0836  19.3811  19.3811  19.6869  19.8499  19.8499
    19.9569  19.9612  19.9612  19.9754  19.9754  20.1682  20.1834  20.1834
    20.2271  21.2433  21.2909  21.2909  21.4233  21.4233  21.4266  21.6422
    21.6422  21.8006  21.8006  21.8244  21.8244  21.8443  21.8624  21.9945
    22.0307  22.0307  22.0788  22.1664  22.1664  22.2155

     highest occupied, lowest unoccupied level (ev):    13.6531   15.3417

!    total energy              =    -602.16285822 Ry
     Harris-Foulkes estimate   =    -602.16285822 Ry
     estimated scf accuracy    <          5.5E-13 Ry

     The total energy is the sum of the following terms:

     one-electron contribution =     213.30587368 Ry
     hartree contribution      =      54.18581248 Ry
     xc contribution           =    -190.72799807 Ry
     ewald contribution        =    -678.92654632 Ry

     convergence has been achieved in  14 iterations

     Forces acting on atoms (cartesian axes, Ry/au):

     atom    1 type  2   force =     0.00311665   -0.00311676   -0.00311639
     atom    2 type  2   force =    -0.00311665    0.00311660    0.00311652
     atom    3 type  1   force =    -0.00041372    0.00041376    0.00031552
     atom    4 type  1   force =    -0.00097336    0.00097336    0.00042402
     atom    5 type  1   force =     0.00097335   -0.00097336   -0.00042401
     atom    6 type  1   force =     0.00041372   -0.00041375   -0.00031553
     atom    7 type  1   force =    -0.00031554    0.00041367    0.00041368
     atom    8 type  1   force =    -0.00042402    0.00097336    0.00097337
     atom    9 type  1   force =    -0.00042434   -0.00048517    0.00042433
     atom   10 type  1   force =     0.00006955    0.00027725   -0.00006957
     atom   11 type  1   force =    -0.00027767   -0.00000794   -0.00061136
     atom   12 type  1   force =    -0.00061138    0.00000794   -0.00027764
     atom   13 type  1   force =     0.00042403   -0.00097336   -0.00097339
     atom   14 type  1   force =     0.00031554   -0.00041367   -0.00041369
     atom   15 type  1   force =     0.00061137   -0.00000793    0.00027762
     atom   16 type  1   force =     0.00027767    0.00000795    0.00061135
     atom   17 type  1   force =    -0.00006955   -0.00027723    0.00006955
     atom   18 type  1   force =     0.00042434    0.00048518   -0.00042433
     atom   19 type  1   force =    -0.00041369    0.00031549    0.00041371
     atom   20 type  1   force =    -0.00097335    0.00042403    0.00097338
     atom   21 type  1   force =     0.00048518    0.00042438    0.00042435
     atom   22 type  1   force =    -0.00027723   -0.00006955   -0.00006956
     atom   23 type  1   force =     0.00000791    0.00027766   -0.00061135
     atom   24 type  1   force =    -0.00000793    0.00061135   -0.00027767
     atom   25 type  1   force =    -0.00042433    0.00042436   -0.00048515
     atom   26 type  1   force =     0.00006954   -0.00006954    0.00027722
     atom   27 type  1   force =    -0.00121888    0.00121889    0.00121889
     atom   28 type  1   force =     0.00071323   -0.00071322   -0.00071324
     atom   29 type  1   force =    -0.00096737    0.00096739    0.00131607
     atom   30 type  1   force =     0.00131309   -0.00131309   -0.00070414
     atom   31 type  1   force =     0.00061137    0.00027767   -0.00000793
     atom   32 type  1   force =     0.00027770    0.00061135    0.00000794
     atom   33 type  1   force =    -0.00131606    0.00096740    0.00096741
     atom   34 type  1   force =     0.00070418   -0.00131309   -0.00131308
     atom   35 type  1   force =    -0.00131308    0.00070413    0.00131311
     atom   36 type  1   force =     0.00096738   -0.00131609   -0.00096736
     atom   37 type  1   force =     0.00097335   -0.00042402   -0.00097339
     atom   38 type  1   force =     0.00041369   -0.00031548   -0.00041371
[...]
                l(2) =   0
                l(3) =   1
                l(4) =   1

     PseudoPot. # 2 for B  read from file:
     ~/PseudoPotential/upf/B_ONCV_PBE-1.0.upf
     MD5 check sum: Not computed, couldn't open file
     Pseudo is Norm-conserving, Zval =  3.0
     Generated using ONCVPSP code by D. R. Hamann
     Using radial grid of  602 points,  4 beta functions with: 
                l(1) =   0
                l(2) =   0
                l(3) =   1
                l(4) =   1

     atomic species   valence    mass     pseudopotential
        C              4.00    12.01100     C ( 1.00)
        B              3.00    10.81100     B ( 1.00)

     No symmetry found



   Cartesian axes

     site n.     atom                  positions (alat units)
         1           B   tau(   1) = (   0.0099186  -0.0099186  -0.0099186  )
         2           B   tau(   2) = (  -0.0931762   0.0931762   0.0931762  )
         3           C   tau(   3) = (  -0.1675150   0.1675150  -0.0051820  )
         4           C   tau(   4) = (  -0.2511461   0.2511461   0.0834526  )
         5           C   tau(   5) = (  -0.3324291   0.3324291  -0.0017386  )
         6           C   tau(   6) = (  -0.4160602   0.4160602   0.0868960  )
         7           C   tau(   7) = (   0.0051820   0.1675150   0.1675150  )
         8           C   tau(   8) = (  -0.0834526   0.2511461   0.2511461  )
         9           C   tau(   9) = (  -0.1661160   0.3336404   0.1661160  )
        10           C   tau(  10) = (  -0.2497954   0.4174889   0.2497954  )
        11           C   tau(  11) = (  -0.3321563   0.4997362   0.1663893  )
        12           C   tau(  12) = (  -0.4156422   0.5841565   0.2498753  )
        13           C   tau(  13) = (   0.0017386   0.3324291   0.3324291  )
        14           C   tau(  14) = (  -0.0868960   0.4160602   0.4160602  )
        15           C   tau(  15) = (  -0.1663893   0.4997362   0.3321563  )
        16           C   tau(  16) = (  -0.2498753   0.5841565   0.4156422  )
        17           C   tau(  17) = (  -0.3322362   0.6664038   0.3322362  )
        18           C   tau(  18) = (  -0.4159155   0.7502522   0.4159155  )
        19           C   tau(  19) = (  -0.1675149  -0.0051820   0.1675150  )
        20           C   tau(  20) = (  -0.2511461   0.0834526   0.2511461  )
        21           C   tau(  21) = (  -0.3336404   0.1661161   0.1661160  )
        22           C   tau(  22) = (  -0.4174889   0.2497954   0.2497954  )
        23           C   tau(  23) = (  -0.4997362   0.3321563   0.1663893  )
        24           C   tau(  24) = (  -0.5841565   0.4156422   0.2498753  )
        25           C   tau(  25) = (  -0.1661160   0.1661161   0.3336404  )
        26           C   tau(  26) = (  -0.2497954   0.2497954   0.4174889  )
        27           C   tau(  27) = (  -0.3330923   0.3330923   0.3330923  )
        28           C   tau(  28) = (  -0.4165587   0.4165587   0.4165587  )
        29           C   tau(  29) = (  -0.4998257   0.4998257   0.3324458  )
        30           C   tau(  30) = (  -0.5830796   0.5830796   0.4158961  )
        31           C   tau(  31) = (  -0.1663893   0.3321563   0.4997362  )
        32           C   tau(  32) = (  -0.2498753   0.4156422   0.5841565  )
        33           C   tau(  33) = (  -0.3324458   0.4998257   0.4998257  )
        34           C   tau(  34) = (  -0.4158961   0.5830796   0.5830796  )
        35           C   tau(  35) = (  -0.4992694   0.6664529   0.4992694  )
        36           C   tau(  36) = (  -0.5825234   0.7499033   0.5825234  )
        37           C   tau(  37) = (  -0.3324291  -0.0017386   0.3324291  )
        38           C   tau(  38) = (  -0.4160602   0.0868960   0.4160602  )
        39           C   tau(  39) = (  -0.4997362   0.1663893   0.3321563  )
        40           C   tau(  40) = (  -0.5841565   0.2498753   0.4156422  )
        41           C   tau(  41) = (  -0.6664038   0.3322362   0.3322362  )
        42           C   tau(  42) = (  -0.7502522   0.4159155   0.4159155  )
        43           C   tau(  43) = (  -0.3321563   0.1663893   0.4997362  )
        44           C   tau(  44) = (  -0.4156422   0.2498753   0.5841565  )
        45           C   tau(  45) = (  -0.4998257   0.3324458   0.4998257  )
        46           C   tau(  46) = (  -0.5830796   0.4158961   0.5830796  )
        47           C   tau(  47) = (  -0.6664529   0.4992694   0.4992694  )
        48           C   tau(  48) = (  -0.7499033   0.5825234   0.5825234  )
        49           C   tau(  49) = (  -0.3322362   0.3322362   0.6664038  )
        50           C   tau(  50) = (  -0.4159155   0.4159155   0.7502522  )
        51           C   tau(  51) = (  -0.4992694   0.4992694   0.6664529  )
        52           C   tau(  52) = (  -0.5825234   0.5825234   0.7499033  )
        53           C   tau(  53) = (  -0.6657903   0.6657903   0.6657903  )
        54           C   tau(  54) = (  -0.7492568   0.7492568   0.7492568  )

     number of k points=     1
                       cart. coord. in units 2pi/alat
        k(    1) = (   0.0000000   0.0000000   0.0000000), wk =   2.0000000

     Dense  grid:    97751 G-vectors     FFT dimensions: (  72,  72,  72)

     Estimated max dynamical RAM per process >       5.52MB

     Estimated total allocated dynamical RAM >     220.94MB

     Initial potential from superposition of free atoms

     starting charge  213.60353, renormalised to  214.00000
     Starting wfc are random

     Writing output data file b.save

     total cpu time spent up to now is       91.2 secs

     per-process dynamical memory:    26.6 Mb

     Self-consistent Calculation

     iteration #  1     ecut=    50.00 Ry     beta=0.70
     CG style diagonalization
     c_bands:  3 eigenvalues not converged
     ethr =  1.00E-06,  avg # of iterations = 42.1

     total cpu time spent up to now is       99.8 secs

     total energy              =    -602.34671291 Ry
     Harris-Foulkes estimate   =    -603.55114039 Ry
     estimated scf accuracy    <       3.70364163 Ry

     iteration #  2     ecut=    50.00 Ry     beta=0.70
     CG style diagonalization
     ethr =  1.73E-03,  avg # of iterations =  3.0

     total cpu time spent up to now is      100.5 secs

     total energy              =    -602.07913883 Ry
     Harris-Foulkes estimate   =    -602.43455482 Ry
     estimated scf accuracy    <       0.84275575 Ry

     iteration #  3     ecut=    50.00 Ry     beta=0.70
     CG style diagonalization
     ethr =  3.94E-04,  avg # of iterations =  3.6

     total cpu time spent up to now is      101.3 secs

     total energy              =    -602.17129923 Ry
     Harris-Foulkes estimate   =    -602.16889639 Ry
     estimated scf accuracy    <       0.01153130 Ry

     iteration #  4     ecut=    50.00 Ry     beta=0.70
     CG style diagonalization
     ethr =  5.39E-06,  avg # of iterations =  5.5

     total cpu time spent up to now is      102.6 secs

     total energy              =    -602.17757289 Ry
     Harris-Foulkes estimate   =    -602.17796595 Ry
     estimated scf accuracy    <       0.00142918 Ry

     iteration #  5     ecut=    50.00 Ry     beta=0.70
     CG style diagonalization
     ethr =  6.68E-07,  avg # of iterations =  4.4

     total cpu time spent up to now is      103.7 secs

     total energy              =    -602.17772516 Ry
     Harris-Foulkes estimate   =    -602.17779722 Ry
     estimated scf accuracy    <       0.00017902 Ry

     iteration #  6     ecut=    50.00 Ry     beta=0.70
     CG style diagonalization
     c_bands:  1 eigenvalues not converged
     ethr =  8.37E-08,  avg # of iterations =  5.2

     total cpu time spent up to now is      104.9 secs

     total energy              =    -602.17777029 Ry
     Harris-Foulkes estimate   =    -602.17777229 Ry
     estimated scf accuracy    <       0.00001958 Ry

     iteration #  7     ecut=    50.00 Ry     beta=0.70
     CG style diagonalization
     ethr =  9.15E-09,  avg # of iterations =  5.0

     total cpu time spent up to now is      106.1 secs

     total energy              =    -602.17777571 Ry
     Harris-Foulkes estimate   =    -602.17777569 Ry
     estimated scf accuracy    <       0.00000174 Ry

     iteration #  8     ecut=    50.00 Ry     beta=0.70
     CG style diagonalization
     c_bands:  2 eigenvalues not converged
     ethr =  8.11E-10,  avg # of iterations =  5.6

     total cpu time spent up to now is      107.5 secs

     total energy              =    -602.17777623 Ry
     Harris-Foulkes estimate   =    -602.17777628 Ry
     estimated scf accuracy    <       0.00000015 Ry

     iteration #  9     ecut=    50.00 Ry     beta=0.70
     CG style diagonalization
     c_bands:  1 eigenvalues not converged
     ethr =  7.05E-11,  avg # of iterations =  5.0

     total cpu time spent up to now is      108.4 secs

     total energy              =    -602.17777626 Ry
     Harris-Foulkes estimate   =    -602.17777627 Ry
     estimated scf accuracy    <       0.00000003 Ry

     iteration # 10     ecut=    50.00 Ry     beta=0.70
     CG style diagonalization
     ethr =  1.46E-11,  avg # of iterations =  4.5

     total cpu time spent up to now is      109.3 secs

     total energy              =    -602.17777626 Ry
     Harris-Foulkes estimate   =    -602.17777626 Ry
     estimated scf accuracy    <          5.0E-09 Ry

     iteration # 11     ecut=    50.00 Ry     beta=0.70
     CG style diagonalization
     ethr =  2.32E-12,  avg # of iterations =  5.1

     total cpu time spent up to now is      110.3 secs

     total energy              =    -602.17777626 Ry
     Harris-Foulkes estimate   =    -602.17777626 Ry
     estimated scf accuracy    <          3.2E-10 Ry

     iteration # 12     ecut=    50.00 Ry     beta=0.70
     CG style diagonalization
     c_bands:  1 eigenvalues not converged
     ethr =  1.51E-13,  avg # of iterations =  5.7

     total cpu time spent up to now is      111.4 secs

     total energy              =    -602.17777626 Ry
     Harris-Foulkes estimate   =    -602.17777626 Ry
     estimated scf accuracy    <          7.1E-11 Ry

     iteration # 13     ecut=    50.00 Ry     beta=0.70
     CG style diagonalization
     ethr =  1.00E-13,  avg # of iterations =  3.2

     total cpu time spent up to now is      112.0 secs

     total energy              =    -602.17777626 Ry
     Harris-Foulkes estimate   =    -602.17777626 Ry
     estimated scf accuracy    <          1.1E-11 Ry

     iteration # 14     ecut=    50.00 Ry     beta=0.70
     CG style diagonalization
     ethr =  1.00E-13,  avg # of iterations =  3.0

     total cpu time spent up to now is      112.5 secs

     total energy              =    -602.17777626 Ry
     Harris-Foulkes estimate   =    -602.17777626 Ry
     estimated scf accuracy    <          2.3E-12 Ry

     iteration # 15     ecut=    50.00 Ry     beta=0.70
     CG style diagonalization
     ethr =  1.00E-13,  avg # of iterations =  3.0

     total cpu time spent up to now is      113.0 secs

     End of self-consistent calculation

          k = 0.0000 0.0000 0.0000 ( 12135 PWs)   bands (ev):

    -8.0427  -5.1668  -5.1668  -5.1633  -5.1384  -5.0327  -5.0327  -4.8732
    -4.6789  -4.0896  -4.0896  -4.0461  -4.0461  -3.8405  -3.0290  -0.7108
    -0.7108  -0.6639  -0.6639  -0.6420  -0.6391  -0.5695  -0.5695  -0.5621
    -0.5621   0.0601   0.8388   2.4554   2.4898   2.4898   2.4954   2.4954
     2.5092   2.5092   2.5171   2.6188   2.6188   3.1585   3.2008   3.9081
     3.9556   3.9590   3.9590   3.9975   3.9975   4.0175   4.0175   4.0333
     4.0582   4.0651   4.0651   4.0830   4.1500   4.1500   4.4668   4.7528
     4.7528   4.8473   5.2346   6.3624   6.3624   6.4001   6.4001   7.0199
     7.7288   8.0188   8.0366   8.0366   8.1084   8.1419   8.1419   8.2060
     8.2786   8.2786   8.3326   8.3326   8.4392   8.6980   8.7041   8.7160
     8.7160   8.7968   8.7968   8.8222   9.1484   9.1484   9.3723   9.3723
     9.7874  11.0064  11.0064  11.0620  11.0765  11.0927  11.0927  11.2415
    11.2415  11.2459  11.2530  11.2530  11.6200  11.6200  11.8968  11.8968
    12.9617  13.6432  13.6432  15.3645  17.6634  17.7546  17.7546  17.8137
    17.8137  18.0183  19.0927  19.3585  19.3585  19.6583  19.8294  19.8294
    19.9424  19.9424  19.9499  19.9710  19.9710  20.1510  20.1774  20.1774
    20.2110  21.2259  21.2765  21.2765  21.4089  21.4089  21.4092  21.6392
    21.6392  21.8120  21.8120  21.8135  21.8135  21.8579  21.8613  21.9645
    22.0000  22.0000  22.0468  22.1535  22.1535  22.1937

     highest occupied, lowest unoccupied level (ev):    13.6432   15.3645

!    total energy              =    -602.17777626 Ry
     Harris-Foulkes estimate   =    -602.17777626 Ry
     estimated scf accuracy    <          9.0E-14 Ry

     The total energy is the sum of the following terms:

     one-electron contribution =     213.03634378 Ry
     hartree contribution      =      54.25102638 Ry
     xc contribution           =    -190.70737057 Ry
     ewald contribution        =    -678.75777586 Ry

     convergence has been achieved in  15 iterations

     Forces acting on atoms (cartesian axes, Ry/au):

     atom    1 type  2   force =     0.00065855   -0.00065841   -0.00065841
     atom    2 type  2   force =    -0.00065843    0.00065852    0.00065834
     atom    3 type  1   force =    -0.00053284    0.00053280    0.00041986
     atom    4 type  1   force =     0.00021689   -0.00021688    0.00007060
     atom    5 type  1   force =    -0.00021688    0.00021689   -0.00007059
     atom    6 type  1   force =     0.00053281   -0.00053280   -0.00041988
     atom    7 type  1   force =    -0.00041990    0.00053287    0.00053290
     atom    8 type  1   force =    -0.00007057   -0.00021690   -0.00021688
     atom    9 type  1   force =    -0.00037959    0.00070593    0.00037954
     atom   10 type  1   force =    -0.00002169   -0.00003031    0.00002171
     atom   11 type  1   force =    -0.00020755    0.00022405    0.00006604
     atom   12 type  1   force =     0.00006604   -0.00022403   -0.00020756
     atom   13 type  1   force =     0.00007058    0.00021690    0.00021688
     atom   14 type  1   force =     0.00041986   -0.00053290   -0.00053293
     atom   15 type  1   force =    -0.00006605    0.00022403    0.00020756
     atom   16 type  1   force =     0.00020754   -0.00022406   -0.00006604
     atom   17 type  1   force =     0.00002169    0.00003031   -0.00002171
     atom   18 type  1   force =     0.00037959   -0.00070593   -0.00037955
     atom   19 type  1   force =    -0.00053290    0.00041983    0.00053289
     atom   20 type  1   force =     0.00021687    0.00007059   -0.00021689
     atom   21 type  1   force =    -0.00070592    0.00037955    0.00037956
     atom   22 type  1   force =     0.00003031    0.00002169    0.00002170
     atom   23 type  1   force =    -0.00022398    0.00020756    0.00006602
     atom   24 type  1   force =     0.00022402   -0.00006602   -0.00020754
     atom   25 type  1   force =    -0.00037957    0.00037955    0.00070595
     atom   26 type  1   force =    -0.00002172    0.00002173   -0.00003030
     atom   27 type  1   force =    -0.00015571    0.00015570    0.00015571
     atom   28 type  1   force =    -0.00021080    0.00021081    0.00021081
     atom   29 type  1   force =    -0.00002825    0.00002824   -0.00007363
     atom   30 type  1   force =    -0.00025318    0.00025316    0.00009061
     atom   31 type  1   force =    -0.00006606    0.00020757    0.00022406
     atom   32 type  1   force =     0.00020753   -0.00006602   -0.00022403
     atom   33 type  1   force =     0.00007363    0.00002827    0.00002824
     atom   34 type  1   force =    -0.00009059    0.00025318    0.00025319
     atom   35 type  1   force =     0.00025319   -0.00009058   -0.00025319
     atom   36 type  1   force =     0.00002826    0.00007367   -0.00002825
     atom   37 type  1   force =    -0.00021688   -0.00007060    0.00021689
     atom   38 type  1   force =     0.00053288   -0.00041986   -0.00053288
     atom   39 type  1   force =    -0.00022403    0.00006603    0.00020756
     atom   40 type  1   force =     0.00022399   -0.00020758   -0.00006601
     atom   41 type  1   force =    -0.00003032   -0.00002169   -0.00002169
     atom   42 type  1   force =     0.00070592   -0.00037955   -0.00037956
     atom   43 type  1   force =    -0.00020755    0.00006599    0.00022404
     atom   44 type  1   force =     0.00006605   -0.00020759   -0.00022405
     atom   45 type  1   force =    -0.00002825   -0.00007367    0.00002825
     atom   46 type  1   force =    -0.00025317    0.00009058    0.00025321
     atom   47 type  1   force =     0.00009060   -0.00025319   -0.00025317
     atom   48 type  1   force =    -0.00007363   -0.00002827   -0.00002824
     atom   49 type  1   force =     0.00002170   -0.00002174    0.00003030
     atom   50 type  1   force =     0.00037958   -0.00037955   -0.00070595
     atom   51 type  1   force =     0.00025318   -0.00025317   -0.00009060
     atom   52 type  1   force =     0.00002826   -0.00002824    0.00007363
     atom   53 type  1   force =     0.00021080   -0.00021081   -0.00021080
     atom   54 type  1   force =     0.00015571   -0.00015570   -0.00015571

     Total force =     0.003852     Total SCF correction =     0.000000


     Computing stress (Cartesian axis) and pressure

          total   stress  (Ry/bohr**3)                   (kbar)     P=    3.69
   0.00002510   0.00001287   0.00001287          3.69      1.89      1.89
   0.00001287   0.00002510  -0.00001287          1.89      3.69     -1.89
   0.00001287  -0.00001287   0.00002510          1.89     -1.89      3.69


     Writing output data file b.save
 
     init_run     :      0.35s CPU      0.50s WALL (       2 calls)
     electrons    :    107.41s CPU    109.17s WALL (       8 calls)
     update_pot   :      0.59s CPU      0.62s WALL (       6 calls)
     forces       :      0.65s CPU      0.69s WALL (       8 calls)
     stress       :      1.49s CPU      1.52s WALL (       8 calls)

     Called by init_run:
     wfcinit      :      0.16s CPU      0.20s WALL (       2 calls)
     potinit      :      0.08s CPU      0.10s WALL (       2 calls)

     Called by electrons:
     c_bands      :    104.18s CPU    105.76s WALL (     107 calls)
     sum_band     :      2.10s CPU      2.14s WALL (     107 calls)
     v_of_rho     :      0.48s CPU      0.50s WALL (     113 calls)
     mix_rho      :      0.53s CPU      0.55s WALL (     107 calls)

     Called by c_bands:
     init_us_2    :      0.15s CPU      0.17s WALL (     216 calls)
     ccgdiagg     :     97.00s CPU     98.43s WALL (     114 calls)
     wfcrot       :      7.18s CPU      7.33s WALL (     106 calls)

     Called by sum_band:

     Called by *cgdiagg:
     h_psi        :     68.36s CPU     69.43s WALL (   68807 calls)
     cdiaghg      :      0.95s CPU      0.95s WALL (     106 calls)

     Called by h_psi:
     h_psi:pot    :     68.07s CPU     69.13s WALL (   68807 calls)
     h_psi:calbec :     22.09s CPU     22.44s WALL (   68807 calls)
     vloc_psi     :     27.82s CPU     28.28s WALL (   68807 calls)
     add_vuspsi   :     17.83s CPU     18.14s WALL (   68807 calls)
     h_1psi       :     63.50s CPU     64.43s WALL (   68701 calls)

     General routines
     calbec       :     39.12s CPU     39.81s WALL (  137548 calls)
     fft          :      0.35s CPU      0.36s WALL (    1309 calls)
     ffts         :      0.28s CPU      0.28s WALL (    1537 calls)
     fftw         :     25.43s CPU     25.85s WALL (  185252 calls)
 
     Parallel routines
     fft_scatter  :     13.98s CPU     14.22s WALL (  188098 calls)
 
     PWSCF        :  1m50.98s CPU     1m53.58s WALL

 
   This run was terminated on:  11:16:28  23Jan2021            

=------------------------------------------------------------------------------=
   JOB DONE.
=------------------------------------------------------------------------------=
