
     Program PWSCF v.6.1 (svn rev. 13369) starts on 16Dec2020 at 16: 3:38 

     This program is part of the open-source Quantum ESPRESSO suite
     for quantum simulation of materials; please cite
         "P. Giannozzi et al., J. Phys.:Condens. Matter 21 395502 (2009);
          URL http://www.quantum-espresso.org", 
     in publications or presentations arising from this work. More details at
     http://www.quantum-espresso.org/quote

     Parallel version (MPI & OpenMP), running on      40 processor cores
     Number of MPI processes:                40
     Threads/MPI process:                     1
     R & G space division:  proc/nbgrp/npool/nimage =      40
     Waiting for input...
     Reading input from standard input

     Current dimensions of program PWSCF are:
     Max number of different atomic species (ntypx) = 10
     Max number of k-points (npk) =  40000
     Max angular momentum in pseudopotentials (lmaxx) =  3

     Atomic positions and unit cell read from directory:
     ./c.save/
 

     IMPORTANT: XC functional enforced from input :
     Exchange-correlation      = PZ ( 1  1  0  0 0 0)
     Any further DFT definition will be discarded
     Please, verify this is what you really want

               file C.pz-mt.fhi.UPF: wavefunction(s)  3d renormalized

     Subspace diagonalization in iterative solution of the eigenvalue problem:
     one sub-group per band group will be used
     scalapack distributed-memory algorithm (size of sub-group:  4*  4 procs)

 
     Parallelization info
     --------------------
     sticks:   dense  smooth     PW     G-vecs:    dense   smooth      PW
     Min          18      18      5                  332      332      52
     Max          19      19      6                  337      337      55
     Sum         745     745    223                13371    13371    2133
 


     bravais-lattice index     =            2
     lattice parameter (alat)  =       6.7034  a.u.
     unit-cell volume          =      75.3061 (a.u.)^3
     number of atoms/cell      =            2
     number of atomic types    =            1
     number of electrons       =         8.00
     number of Kohn-Sham states=            8
     kinetic-energy cutoff     =     120.0000  Ry
     charge density cutoff     =     480.0000  Ry
     Exchange-correlation      = PZ ( 1  1  0  0 0 0)

     celldm(1)=   6.703426  celldm(2)=   0.000000  celldm(3)=   0.000000
     celldm(4)=   0.000000  celldm(5)=   0.000000  celldm(6)=   0.000000

     crystal axes: (cart. coord. in units of alat)
               a(1) = (  -0.500000   0.000000   0.500000 )  
               a(2) = (   0.000000   0.500000   0.500000 )  
               a(3) = (  -0.500000   0.500000   0.000000 )  

     reciprocal axes: (cart. coord. in units 2 pi/alat)
               b(1) = ( -1.000000 -1.000000  1.000000 )  
               b(2) = (  1.000000  1.000000  1.000000 )  
               b(3) = ( -1.000000  1.000000 -1.000000 )  


     PseudoPot. # 1 for  C read from file:
     ../C.pz-mt.fhi.UPF
     MD5 check sum: b7c38bc33a0cf75f44be89b84470f298
     Pseudo is Norm-conserving, Zval =  4.0
     Generated using FHI98PP, converted with fhi2upf.x v.5.0.2
     Using radial grid of  461 points,  2 beta functions with: 
                l(1) =   0
                l(2) =   1

     atomic species   valence    mass     pseudopotential
        C              4.00    12.01100      C( 1.00)

     48 Sym. Ops., with inversion, found (24 have fractional translation)



   Cartesian axes

     site n.     atom                  positions (alat units)
         1           C   tau(   1) = (   0.0000000   0.0000000   0.0000000  )
         2           C   tau(   2) = (  -0.2500000   0.2500000   0.2500000  )

     number of k points=     8
                       cart. coord. in units 2pi/alat
        k(    1) = (   0.0000000   0.0000000   0.0000000), wk =   0.0312500
        k(    2) = (  -0.2500000   0.2500000  -0.2500000), wk =   0.2500000
        k(    3) = (   0.5000000  -0.5000000   0.5000000), wk =   0.1250000
        k(    4) = (   0.0000000   0.5000000   0.0000000), wk =   0.1875000
        k(    5) = (   0.7500000  -0.2500000   0.7500000), wk =   0.7500000
        k(    6) = (   0.5000000   0.0000000   0.5000000), wk =   0.3750000
        k(    7) = (   0.0000000  -1.0000000   0.0000000), wk =   0.0937500
        k(    8) = (  -0.5000000  -1.0000000   0.0000000), wk =   0.1875000

     Dense  grid:    13371 G-vectors     FFT dimensions: (  36,  36,  36)

     Estimated max dynamical RAM per process >       0.46MB

     Estimated total allocated dynamical RAM >      18.36MB

     The potential is recalculated from file :
     ./c.save/charge-density.dat

     Starting wfc are   18 randomized atomic wfcs

     Band Structure Calculation
     Davidson diagonalization with overlap

     ethr =  1.25E-12,  avg # of iterations = 10.9

     total cpu time spent up to now is        0.8 secs

     End of band structure calculation

          k = 0.0000 0.0000 0.0000 (  1687 PWs)   bands (ev):

    -8.1913  13.2942  13.2942  13.2942  18.8993  18.8993  18.8993  27.0682

          k =-0.2500 0.2500-0.2500 (  1657 PWs)   bands (ev):

    -6.4509   6.7278  11.5355  11.5355  21.1079  21.1079  21.6401  28.0727

          k = 0.5000-0.5000 0.5000 (  1676 PWs)   bands (ev):

    -2.2438  -0.1783  10.4754  10.4754  21.7720  21.7720  22.5141  28.8795

          k = 0.0000 0.5000 0.0000 (  1700 PWs)   bands (ev):

    -5.8747   8.9089   9.1327   9.1327  17.7921  23.6235  24.9212  24.9212

          k = 0.7500-0.2500 0.7500 (  1667 PWs)   bands (ev):

    -2.0668   2.5418   6.5551   8.3733  19.4163  24.7618  26.1476  26.7661

          k = 0.5000 0.0000 0.5000 (  1682 PWs)   bands (ev):

    -3.6536   4.6795   5.6316  10.2589  21.2858  23.3401  25.7278  27.3651

          k = 0.0000-1.0000 0.0000 (  1660 PWs)   bands (ev):

     0.6354   0.6354   6.9362   6.9362  18.1021  18.1021  30.1482  30.1482

          k =-0.5000-1.0000 0.0000 (  1648 PWs)   bands (ev):

     1.4946   1.4946   4.8439   4.8439  23.8511  23.8511  25.8048  25.8048

     highest occupied, lowest unoccupied level (ev):    13.2942   17.7921

     Writing output data file c.save
 
     init_run     :      0.02s CPU      0.06s WALL (       1 calls)
     electrons    :      0.43s CPU      0.46s WALL (       1 calls)

     Called by init_run:
     wfcinit      :      0.00s CPU      0.00s WALL (       1 calls)
     potinit      :      0.01s CPU      0.02s WALL (       1 calls)

     Called by electrons:
     c_bands      :      0.43s CPU      0.45s WALL (       1 calls)
     v_of_rho     :      0.00s CPU      0.01s WALL (       1 calls)

     Called by c_bands:
     init_us_2    :      0.00s CPU      0.00s WALL (       8 calls)
     cegterg      :      0.38s CPU      0.39s WALL (       8 calls)

     Called by sum_band:

     Called by *egterg:
     h_psi        :      0.07s CPU      0.08s WALL (     103 calls)
     g_psi        :      0.00s CPU      0.00s WALL (      87 calls)
     cdiaghg      :      0.24s CPU      0.25s WALL (      95 calls)

     Called by h_psi:
     h_psi:pot    :      0.07s CPU      0.08s WALL (     103 calls)
     h_psi:calbec :      0.01s CPU      0.01s WALL (     103 calls)
     vloc_psi     :      0.07s CPU      0.07s WALL (     103 calls)
     add_vuspsi   :      0.00s CPU      0.00s WALL (     103 calls)

     General routines
     calbec       :      0.01s CPU      0.01s WALL (     103 calls)
     fft          :      0.00s CPU      0.01s WALL (       3 calls)
     fftw         :      0.06s CPU      0.07s WALL (    1510 calls)
 
     Parallel routines
     fft_scatter  :      0.05s CPU      0.05s WALL (    1513 calls)
 
     PWSCF        :     0.76s CPU         1.53s WALL

 
   This run was terminated on:  16: 3:39  16Dec2020            

=------------------------------------------------------------------------------=
   JOB DONE.
=------------------------------------------------------------------------------=
