
     Program PWSCF v.6.1 (svn rev. 13369) starts on 16Dec2020 at 15: 5: 9 

     This program is part of the open-source Quantum ESPRESSO suite
     for quantum simulation of materials; please cite
         "P. Giannozzi et al., J. Phys.:Condens. Matter 21 395502 (2009);
          URL http://www.quantum-espresso.org", 
     in publications or presentations arising from this work. More details at
     http://www.quantum-espresso.org/quote

     Parallel version (MPI & OpenMP), running on      40 processor cores
     Number of MPI processes:                40
     Threads/MPI process:                     1
     R & G space division:  proc/nbgrp/npool/nimage =      40
     Waiting for input...
     Reading input from standard input

     Current dimensions of program PWSCF are:
     Max number of different atomic species (ntypx) = 10
     Max number of k-points (npk) =  40000
     Max angular momentum in pseudopotentials (lmaxx) =  3

     IMPORTANT: XC functional enforced from input :
     Exchange-correlation      = PZ ( 1  1  0  0 0 0)
     Any further DFT definition will be discarded
     Please, verify this is what you really want

               file C.pz-mt.fhi.UPF: wavefunction(s)  3d renormalized

     Subspace diagonalization in iterative solution of the eigenvalue problem:
     one sub-group per band group will be used
     scalapack distributed-memory algorithm (size of sub-group:  4*  4 procs)

 
     Parallelization info
     --------------------
     sticks:   dense  smooth     PW     G-vecs:    dense   smooth      PW
     Min          18      18      5                  332      332      55
     Max          19      19      6                  337      337      59
     Sum         745     745    235                13371    13371    2277
 


     bravais-lattice index     =            2
     lattice parameter (alat)  =       6.7034  a.u.
     unit-cell volume          =      75.3061 (a.u.)^3
     number of atoms/cell      =            2
     number of atomic types    =            1
     number of electrons       =         8.00
     number of Kohn-Sham states=            4
     kinetic-energy cutoff     =     120.0000  Ry
     charge density cutoff     =     480.0000  Ry
     convergence threshold     =      1.0E-20
     mixing beta               =       0.7000
     number of iterations used =            8  plain     mixing
     Exchange-correlation      = PZ ( 1  1  0  0 0 0)

     celldm(1)=   6.703426  celldm(2)=   0.000000  celldm(3)=   0.000000
     celldm(4)=   0.000000  celldm(5)=   0.000000  celldm(6)=   0.000000

     crystal axes: (cart. coord. in units of alat)
               a(1) = (  -0.500000   0.000000   0.500000 )  
               a(2) = (   0.000000   0.500000   0.500000 )  
               a(3) = (  -0.500000   0.500000   0.000000 )  

     reciprocal axes: (cart. coord. in units 2 pi/alat)
               b(1) = ( -1.000000 -1.000000  1.000000 )  
               b(2) = (  1.000000  1.000000  1.000000 )  
               b(3) = ( -1.000000  1.000000 -1.000000 )  


     PseudoPot. # 1 for  C read from file:
     ../C.pz-mt.fhi.UPF
     MD5 check sum: b7c38bc33a0cf75f44be89b84470f298
     Pseudo is Norm-conserving, Zval =  4.0
     Generated using FHI98PP, converted with fhi2upf.x v.5.0.2
     Using radial grid of  461 points,  2 beta functions with: 
                l(1) =   0
                l(2) =   1

     atomic species   valence    mass     pseudopotential
        C              4.00    12.01100      C( 1.00)

     48 Sym. Ops., with inversion, found (24 have fractional translation)



   Cartesian axes

     site n.     atom                  positions (alat units)
         1           C   tau(   1) = (   0.0000000   0.0000000   0.0000000  )
         2           C   tau(   2) = (  -0.2500000   0.2500000   0.2500000  )

     number of k points=   145

     Number of k-points >= 100: set verbosity='high' to print them.

     Dense  grid:    13371 G-vectors     FFT dimensions: (  36,  36,  36)

     Estimated max dynamical RAM per process >       0.60MB

     Estimated total allocated dynamical RAM >      24.15MB

     Initial potential from superposition of free atoms

     starting charge    7.99993, renormalised to    8.00000
     Starting wfc are   18 randomized atomic wfcs

     total cpu time spent up to now is        1.8 secs

     per-process dynamical memory:    18.8 Mb

     Self-consistent Calculation

     iteration #  1     ecut=   120.00 Ry     beta=0.70
     Davidson diagonalization with overlap
     ethr =  1.00E-02,  avg # of iterations =  2.0

     total cpu time spent up to now is        2.8 secs

     total energy              =     -22.87768985 Ry
     Harris-Foulkes estimate   =     -22.94632446 Ry
     estimated scf accuracy    <       0.13081457 Ry

     iteration #  2     ecut=   120.00 Ry     beta=0.70
     Davidson diagonalization with overlap
     ethr =  1.64E-03,  avg # of iterations =  2.0

     total cpu time spent up to now is        3.8 secs

     total energy              =     -22.88976661 Ry
     Harris-Foulkes estimate   =     -22.89025543 Ry
     estimated scf accuracy    <       0.00187629 Ry

     iteration #  3     ecut=   120.00 Ry     beta=0.70
     Davidson diagonalization with overlap
     ethr =  2.35E-05,  avg # of iterations =  2.1

     total cpu time spent up to now is        4.9 secs

     total energy              =     -22.89012557 Ry
     Harris-Foulkes estimate   =     -22.89013566 Ry
     estimated scf accuracy    <       0.00007103 Ry

     iteration #  4     ecut=   120.00 Ry     beta=0.70
     Davidson diagonalization with overlap
     ethr =  8.88E-07,  avg # of iterations =  2.4

     total cpu time spent up to now is        6.2 secs

     total energy              =     -22.89014332 Ry
     Harris-Foulkes estimate   =     -22.89014481 Ry
     estimated scf accuracy    <       0.00000258 Ry

     iteration #  5     ecut=   120.00 Ry     beta=0.70
     Davidson diagonalization with overlap
     ethr =  3.23E-08,  avg # of iterations =  2.5

     total cpu time spent up to now is        7.5 secs

     total energy              =     -22.89014432 Ry
     Harris-Foulkes estimate   =     -22.89014433 Ry
     estimated scf accuracy    <       0.00000003 Ry

     iteration #  6     ecut=   120.00 Ry     beta=0.70
     Davidson diagonalization with overlap
     ethr =  3.34E-10,  avg # of iterations =  3.0

     total cpu time spent up to now is        8.9 secs

     total energy              =     -22.89014434 Ry
     Harris-Foulkes estimate   =     -22.89014434 Ry
     estimated scf accuracy    <          7.3E-10 Ry

     iteration #  7     ecut=   120.00 Ry     beta=0.70
     Davidson diagonalization with overlap
     ethr =  9.17E-12,  avg # of iterations =  2.3

     total cpu time spent up to now is       10.2 secs

     total energy              =     -22.89014434 Ry
     Harris-Foulkes estimate   =     -22.89014434 Ry
     estimated scf accuracy    <          9.0E-13 Ry

     iteration #  8     ecut=   120.00 Ry     beta=0.70
     Davidson diagonalization with overlap
     ethr =  1.00E-13,  avg # of iterations =  2.9

     total cpu time spent up to now is       11.6 secs

     total energy              =     -22.89014434 Ry
     Harris-Foulkes estimate   =     -22.89014434 Ry
     estimated scf accuracy    <          4.2E-13 Ry

     iteration #  9     ecut=   120.00 Ry     beta=0.70
     Davidson diagonalization with overlap
     ethr =  1.00E-13,  avg # of iterations =  1.0

     total cpu time spent up to now is       12.3 secs

     total energy              =     -22.89014434 Ry
     Harris-Foulkes estimate   =     -22.89014434 Ry
     estimated scf accuracy    <          2.2E-15 Ry

     iteration # 10     ecut=   120.00 Ry     beta=0.70
     Davidson diagonalization with overlap
     ethr =  1.00E-13,  avg # of iterations =  1.0

     total cpu time spent up to now is       13.0 secs

     total energy              =     -22.89014434 Ry
     Harris-Foulkes estimate   =     -22.89014434 Ry
     estimated scf accuracy    <          5.6E-17 Ry

     iteration # 11     ecut=   120.00 Ry     beta=0.70
     Davidson diagonalization with overlap
     ethr =  1.00E-13,  avg # of iterations =  1.0

     total cpu time spent up to now is       13.8 secs

     total energy              =     -22.89014434 Ry
     Harris-Foulkes estimate   =     -22.89014434 Ry
     estimated scf accuracy    <          1.6E-16 Ry

     iteration # 12     ecut=   120.00 Ry     beta=0.70
     Davidson diagonalization with overlap
     ethr =  1.00E-13,  avg # of iterations =  1.0

     total cpu time spent up to now is       14.5 secs

     total energy              =     -22.89014434 Ry
     Harris-Foulkes estimate   =     -22.89014434 Ry
     estimated scf accuracy    <          8.0E-18 Ry

     iteration # 13     ecut=   120.00 Ry     beta=0.70
     Davidson diagonalization with overlap
     ethr =  1.00E-13,  avg # of iterations =  1.0

     total cpu time spent up to now is       15.2 secs

     total energy              =     -22.89014434 Ry
     Harris-Foulkes estimate   =     -22.89014434 Ry
     estimated scf accuracy    <          4.5E-19 Ry

     iteration # 14     ecut=   120.00 Ry     beta=0.70
     Davidson diagonalization with overlap
     ethr =  1.00E-13,  avg # of iterations =  1.0

     total cpu time spent up to now is       15.9 secs

     total energy              =     -22.89014434 Ry
     Harris-Foulkes estimate   =     -22.89014434 Ry
     estimated scf accuracy    <          1.9E-18 Ry

     iteration # 15     ecut=   120.00 Ry     beta=0.70
     Davidson diagonalization with overlap
     ethr =  1.00E-13,  avg # of iterations =  1.0

     total cpu time spent up to now is       16.7 secs

     total energy              =     -22.89014434 Ry
     Harris-Foulkes estimate   =     -22.89014434 Ry
     estimated scf accuracy    <          7.0E-20 Ry

     iteration # 16     ecut=   120.00 Ry     beta=0.70
     Davidson diagonalization with overlap
     ethr =  1.00E-13,  avg # of iterations =  1.0

     total cpu time spent up to now is       17.4 secs

     total energy              =     -22.89014434 Ry
     Harris-Foulkes estimate   =     -22.89014434 Ry
     estimated scf accuracy    <          1.2E-20 Ry

     iteration # 17     ecut=   120.00 Ry     beta=0.70
     Davidson diagonalization with overlap
     ethr =  1.00E-13,  avg # of iterations =  1.0

     total cpu time spent up to now is       18.1 secs

     End of self-consistent calculation

     Number of k-points >= 100: set verbosity='high' to print the bands.

     highest occupied level (ev):    13.2942

!    total energy              =     -22.89014434 Ry
     Harris-Foulkes estimate   =     -22.89014434 Ry
     estimated scf accuracy    <          9.6E-22 Ry

     The total energy is the sum of the following terms:

     one-electron contribution =       8.01345531 Ry
     hartree contribution      =       1.90801178 Ry
     xc contribution           =      -7.09676800 Ry
     ewald contribution        =     -25.71484342 Ry

     convergence has been achieved in  17 iterations

     Writing output data file c.save
 
     init_run     :      1.51s CPU      1.61s WALL (       1 calls)
     electrons    :     16.04s CPU     16.41s WALL (       1 calls)

     Called by init_run:
     wfcinit      :      1.43s CPU      1.46s WALL (       1 calls)
     potinit      :      0.00s CPU      0.03s WALL (       1 calls)

     Called by electrons:
     c_bands      :     15.62s CPU     15.91s WALL (      17 calls)
     sum_band     :      0.40s CPU      0.43s WALL (      17 calls)
     v_of_rho     :      0.01s CPU      0.01s WALL (      18 calls)
     mix_rho      :      0.01s CPU      0.01s WALL (      17 calls)

     Called by c_bands:
     init_us_2    :      0.05s CPU      0.05s WALL (    5075 calls)
     cegterg      :     15.42s CPU     15.71s WALL (    2465 calls)

     Called by sum_band:

     Called by *egterg:
     h_psi        :      2.45s CPU      2.51s WALL (    6695 calls)
     g_psi        :      0.01s CPU      0.01s WALL (    4085 calls)
     cdiaghg      :      8.99s CPU      9.11s WALL (    6550 calls)

     Called by h_psi:
     h_psi:pot    :      2.44s CPU      2.50s WALL (    6695 calls)
     h_psi:calbec :      0.21s CPU      0.22s WALL (    6695 calls)
     vloc_psi     :      2.15s CPU      2.20s WALL (    6695 calls)
     add_vuspsi   :      0.05s CPU      0.05s WALL (    6695 calls)

     General routines
     calbec       :      0.20s CPU      0.21s WALL (    6695 calls)
     fft          :      0.01s CPU      0.02s WALL (      71 calls)
     fftw         :      2.34s CPU      2.42s WALL (   63012 calls)
 
     Parallel routines
     fft_scatter  :      1.75s CPU      1.81s WALL (   63083 calls)
 
     PWSCF        :    18.29s CPU        28.70s WALL

 
   This run was terminated on:  15: 5:37  16Dec2020            

=------------------------------------------------------------------------------=
   JOB DONE.
=------------------------------------------------------------------------------=
