
     Program PWSCF v.6.1 (svn rev. 13369) starts on  9Jan2021 at  2: 0:28 

     This program is part of the open-source Quantum ESPRESSO suite
     for quantum simulation of materials; please cite
         "P. Giannozzi et al., J. Phys.:Condens. Matter 21 395502 (2009);
          URL http://www.quantum-espresso.org", 
     in publications or presentations arising from this work. More details at
     http://www.quantum-espresso.org/quote

     Parallel version (MPI & OpenMP), running on      80 processor cores
     Number of MPI processes:                80
     Threads/MPI process:                     1
     R & G space division:  proc/nbgrp/npool/nimage =      80
     Waiting for input...
     Reading input from standard input

     Current dimensions of program PWSCF are:
     Max number of different atomic species (ntypx) = 10
     Max number of k-points (npk) =  40000
     Max angular momentum in pseudopotentials (lmaxx) =  3

     IMPORTANT: XC functional enforced from input :
     Exchange-correlation      = PBE ( 1  4  3  4 0 0)
     Any further DFT definition will be discarded
     Please, verify this is what you really want


     Subspace diagonalization in iterative solution of the eigenvalue problem:
     one sub-group per band group will be used
     scalapack distributed-memory algorithm (size of sub-group:  6*  6 procs)

 
     Parallelization info
     --------------------
     sticks:   dense  smooth     PW     G-vecs:    dense   smooth      PW
     Min           4       4      1                   58       58       9
     Max           5       5      2                   64       64      14
     Sum         379     379    121                 4909     4909     941
 


     bravais-lattice index     =            2
     lattice parameter (alat)  =       6.7737  a.u.
     unit-cell volume          =      77.7009 (a.u.)^3
     number of atoms/cell      =            2
     number of atomic types    =            1
     number of electrons       =         8.00
     number of Kohn-Sham states=            8
     kinetic-energy cutoff     =      60.0000  Ry
     charge density cutoff     =     240.0000  Ry
     convergence threshold     =      1.0E-20
     mixing beta               =       0.7000
     number of iterations used =            8  plain     mixing
     Exchange-correlation      = PBE ( 1  4  3  4 0 0)

     celldm(1)=   6.773741  celldm(2)=   0.000000  celldm(3)=   0.000000
     celldm(4)=   0.000000  celldm(5)=   0.000000  celldm(6)=   0.000000

     crystal axes: (cart. coord. in units of alat)
               a(1) = (  -0.500000   0.000000   0.500000 )  
               a(2) = (   0.000000   0.500000   0.500000 )  
               a(3) = (  -0.500000   0.500000   0.000000 )  

     reciprocal axes: (cart. coord. in units 2 pi/alat)
               b(1) = ( -1.000000 -1.000000  1.000000 )  
               b(2) = (  1.000000  1.000000  1.000000 )  
               b(3) = ( -1.000000  1.000000 -1.000000 )  


     PseudoPot. # 1 for C  read from file:
     ../../C_ONCV_PBE-1.0.upf
     MD5 check sum: 40f8c33130f0afa4272e9dcc1c4fb0df
     Pseudo is Norm-conserving, Zval =  4.0
     Generated using ONCVPSP code by D. R. Hamann
     Using radial grid of  602 points,  4 beta functions with: 
                l(1) =   0
                l(2) =   0
                l(3) =   1
                l(4) =   1

     atomic species   valence    mass     pseudopotential
        C              4.00    12.01100     C ( 1.00)

     No symmetry found



   Cartesian axes

     site n.     atom                  positions (alat units)
         1           C   tau(   1) = (   0.0000000   0.0000000   0.0000000  )
         2           C   tau(   2) = (  -0.2500000   0.2500000   0.2500000  )

     number of k points=    64
                       cart. coord. in units 2pi/alat
        k(    1) = (   0.0000000   0.0000000   0.0000000), wk =   0.0312500
        k(    2) = (  -0.2500000   0.2500000  -0.2500000), wk =   0.0312500
        k(    3) = (   0.5000000  -0.5000000   0.5000000), wk =   0.0312500
        k(    4) = (   0.2500000  -0.2500000   0.2500000), wk =   0.0312500
        k(    5) = (   0.2500000   0.2500000   0.2500000), wk =   0.0312500
        k(    6) = (   0.0000000   0.5000000   0.0000000), wk =   0.0312500
        k(    7) = (   0.7500000  -0.2500000   0.7500000), wk =   0.0312500
        k(    8) = (   0.5000000   0.0000000   0.5000000), wk =   0.0312500
        k(    9) = (  -0.5000000  -0.5000000  -0.5000000), wk =   0.0312500
        k(   10) = (  -0.7500000  -0.2500000  -0.7500000), wk =   0.0312500
        k(   11) = (   0.0000000  -1.0000000   0.0000000), wk =   0.0312500
        k(   12) = (  -0.2500000  -0.7500000  -0.2500000), wk =   0.0312500
        k(   13) = (  -0.2500000  -0.2500000  -0.2500000), wk =   0.0312500
        k(   14) = (  -0.5000000   0.0000000  -0.5000000), wk =   0.0312500
        k(   15) = (   0.2500000  -0.7500000   0.2500000), wk =   0.0312500
        k(   16) = (   0.0000000  -0.5000000   0.0000000), wk =   0.0312500
        k(   17) = (  -0.2500000  -0.2500000   0.2500000), wk =   0.0312500
        k(   18) = (  -0.5000000   0.0000000   0.0000000), wk =   0.0312500
        k(   19) = (   0.2500000  -0.7500000   0.7500000), wk =   0.0312500
        k(   20) = (   0.0000000  -0.5000000   0.5000000), wk =   0.0312500
        k(   21) = (   0.0000000   0.0000000   0.5000000), wk =   0.0312500
        k(   22) = (  -0.2500000   0.2500000   0.2500000), wk =   0.0312500
        k(   23) = (   0.5000000  -0.5000000   1.0000000), wk =   0.0312500
        k(   24) = (   0.2500000  -0.2500000   0.7500000), wk =   0.0312500
        k(   25) = (  -0.7500000  -0.7500000  -0.2500000), wk =   0.0312500
        k(   26) = (  -1.0000000  -0.5000000  -0.5000000), wk =   0.0312500
        k(   27) = (  -0.2500000  -1.2500000   0.2500000), wk =   0.0312500
        k(   28) = (  -0.5000000  -1.0000000   0.0000000), wk =   0.0312500
        k(   29) = (  -0.5000000  -0.5000000   0.0000000), wk =   0.0312500
        k(   30) = (  -0.7500000  -0.2500000  -0.2500000), wk =   0.0312500
        k(   31) = (   0.0000000  -1.0000000   0.5000000), wk =   0.0312500
        k(   32) = (  -0.2500000  -0.7500000   0.2500000), wk =   0.0312500
        k(   33) = (   0.5000000   0.5000000  -0.5000000), wk =   0.0312500
        k(   34) = (   0.2500000   0.7500000  -0.7500000), wk =   0.0312500
        k(   35) = (   1.0000000   0.0000000   0.0000000), wk =   0.0312500
        k(   36) = (   0.7500000   0.2500000  -0.2500000), wk =   0.0312500
        k(   37) = (   0.7500000   0.7500000  -0.2500000), wk =   0.0312500
        k(   38) = (   0.5000000   1.0000000  -0.5000000), wk =   0.0312500
        k(   39) = (   1.2500000   0.2500000   0.2500000), wk =   0.0312500
        k(   40) = (   1.0000000   0.5000000   0.0000000), wk =   0.0312500
        k(   41) = (   0.0000000   0.0000000  -1.0000000), wk =   0.0312500
        k(   42) = (  -0.2500000   0.2500000  -1.2500000), wk =   0.0312500
        k(   43) = (   0.5000000  -0.5000000  -0.5000000), wk =   0.0312500
        k(   44) = (   0.2500000  -0.2500000  -0.7500000), wk =   0.0312500
        k(   45) = (   0.2500000   0.2500000  -0.7500000), wk =   0.0312500
        k(   46) = (   0.0000000   0.5000000  -1.0000000), wk =   0.0312500
        k(   47) = (   0.7500000  -0.2500000  -0.2500000), wk =   0.0312500
        k(   48) = (   0.5000000   0.0000000  -0.5000000), wk =   0.0312500
        k(   49) = (   0.2500000   0.2500000  -0.2500000), wk =   0.0312500
        k(   50) = (   0.0000000   0.5000000  -0.5000000), wk =   0.0312500
        k(   51) = (   0.7500000  -0.2500000   0.2500000), wk =   0.0312500
        k(   52) = (   0.5000000   0.0000000   0.0000000), wk =   0.0312500
        k(   53) = (   0.5000000   0.5000000   0.0000000), wk =   0.0312500
        k(   54) = (   0.2500000   0.7500000  -0.2500000), wk =   0.0312500
        k(   55) = (   1.0000000   0.0000000   0.5000000), wk =   0.0312500
        k(   56) = (   0.7500000   0.2500000   0.2500000), wk =   0.0312500
        k(   57) = (  -0.2500000  -0.2500000  -0.7500000), wk =   0.0312500
        k(   58) = (  -0.5000000   0.0000000  -1.0000000), wk =   0.0312500
        k(   59) = (   0.2500000  -0.7500000  -0.2500000), wk =   0.0312500
        k(   60) = (   0.0000000  -0.5000000  -0.5000000), wk =   0.0312500
        k(   61) = (   0.0000000   0.0000000  -0.5000000), wk =   0.0312500
        k(   62) = (  -0.2500000   0.2500000  -0.7500000), wk =   0.0312500
        k(   63) = (   0.5000000  -0.5000000   0.0000000), wk =   0.0312500
        k(   64) = (   0.2500000  -0.2500000  -0.2500000), wk =   0.0312500

     Dense  grid:     4909 G-vectors     FFT dimensions: (  24,  24,  24)

     Estimated max dynamical RAM per process >       0.17MB

     Estimated total allocated dynamical RAM >      13.48MB

     Initial potential from superposition of free atoms

     starting charge    7.98607, renormalised to    8.00000
     Starting wfc are random

     total cpu time spent up to now is        1.5 secs

     per-process dynamical memory:    32.2 Mb

     Self-consistent Calculation

     iteration #  1     ecut=    60.00 Ry     beta=0.70
     Davidson diagonalization with overlap
     ethr =  1.00E-02,  avg # of iterations =  7.3

     total cpu time spent up to now is        5.7 secs

     total energy              =     -22.76595120 Ry
     Harris-Foulkes estimate   =     -22.81535438 Ry
     estimated scf accuracy    <       0.11440011 Ry

     iteration #  2     ecut=    60.00 Ry     beta=0.70
     Davidson diagonalization with overlap
     ethr =  1.43E-03,  avg # of iterations =  2.6

     total cpu time spent up to now is        7.6 secs

     total energy              =     -22.77338547 Ry
     Harris-Foulkes estimate   =     -22.77370963 Ry
     estimated scf accuracy    <       0.00255170 Ry

     iteration #  3     ecut=    60.00 Ry     beta=0.70
     Davidson diagonalization with overlap
     ethr =  3.19E-05,  avg # of iterations =  2.8

     total cpu time spent up to now is       10.0 secs

     total energy              =     -22.77383204 Ry
     Harris-Foulkes estimate   =     -22.77381910 Ry
     estimated scf accuracy    <       0.00007938 Ry

     iteration #  4     ecut=    60.00 Ry     beta=0.70
     Davidson diagonalization with overlap
     ethr =  9.92E-07,  avg # of iterations =  2.2

     total cpu time spent up to now is       12.1 secs

     total energy              =     -22.77383653 Ry
     Harris-Foulkes estimate   =     -22.77384000 Ry
     estimated scf accuracy    <       0.00000716 Ry

     iteration #  5     ecut=    60.00 Ry     beta=0.70
     Davidson diagonalization with overlap
     ethr =  8.96E-08,  avg # of iterations =  2.0

     total cpu time spent up to now is       14.3 secs

     total energy              =     -22.77383775 Ry
     Harris-Foulkes estimate   =     -22.77383788 Ry
     estimated scf accuracy    <       0.00000032 Ry

     iteration #  6     ecut=    60.00 Ry     beta=0.70
     Davidson diagonalization with overlap
     ethr =  3.94E-09,  avg # of iterations =  2.3

     total cpu time spent up to now is       17.0 secs

     total energy              =     -22.77383780 Ry
     Harris-Foulkes estimate   =     -22.77383779 Ry
     estimated scf accuracy    <          9.7E-09 Ry

     iteration #  7     ecut=    60.00 Ry     beta=0.70
     Davidson diagonalization with overlap
     ethr =  1.21E-10,  avg # of iterations =  2.6

     total cpu time spent up to now is       20.1 secs

     total energy              =     -22.77383780 Ry
     Harris-Foulkes estimate   =     -22.77383780 Ry
     estimated scf accuracy    <          1.5E-10 Ry

     iteration #  8     ecut=    60.00 Ry     beta=0.70
     Davidson diagonalization with overlap
     ethr =  1.82E-12,  avg # of iterations =  3.1

     total cpu time spent up to now is       23.8 secs

     total energy              =     -22.77383780 Ry
     Harris-Foulkes estimate   =     -22.77383780 Ry
     estimated scf accuracy    <          2.1E-12 Ry

     iteration #  9     ecut=    60.00 Ry     beta=0.70
     Davidson diagonalization with overlap
     ethr =  1.00E-13,  avg # of iterations =  2.2

     total cpu time spent up to now is       27.0 secs

     total energy              =     -22.77383780 Ry
     Harris-Foulkes estimate   =     -22.77383780 Ry
     estimated scf accuracy    <          2.0E-14 Ry

     iteration # 10     ecut=    60.00 Ry     beta=0.70
     Davidson diagonalization with overlap
     ethr =  1.00E-13,  avg # of iterations =  1.0

     total cpu time spent up to now is       29.3 secs

     total energy              =     -22.77383780 Ry
     Harris-Foulkes estimate   =     -22.77383780 Ry
     estimated scf accuracy    <          1.9E-16 Ry

     iteration # 11     ecut=    60.00 Ry     beta=0.70
     Davidson diagonalization with overlap
     ethr =  1.00E-13,  avg # of iterations =  1.0

     total cpu time spent up to now is       31.9 secs

     total energy              =     -22.77383780 Ry
     Harris-Foulkes estimate   =     -22.77383780 Ry
     estimated scf accuracy    <          6.5E-17 Ry

     iteration # 12     ecut=    60.00 Ry     beta=0.70
     Davidson diagonalization with overlap
     ethr =  1.00E-13,  avg # of iterations =  1.0

     total cpu time spent up to now is       34.5 secs

     total energy              =     -22.77383780 Ry
     Harris-Foulkes estimate   =     -22.77383780 Ry
     estimated scf accuracy    <          5.2E-19 Ry

     iteration # 13     ecut=    60.00 Ry     beta=0.70
     Davidson diagonalization with overlap
     ethr =  1.00E-13,  avg # of iterations =  1.0

     total cpu time spent up to now is       37.4 secs

     total energy              =     -22.77383780 Ry
     Harris-Foulkes estimate   =     -22.77383780 Ry
     estimated scf accuracy    <          8.3E-20 Ry

     iteration # 14     ecut=    60.00 Ry     beta=0.70
     Davidson diagonalization with overlap
     ethr =  1.00E-13,  avg # of iterations =  1.0

     total cpu time spent up to now is       40.5 secs

     total energy              =     -22.77383780 Ry
     Harris-Foulkes estimate   =     -22.77383780 Ry
     estimated scf accuracy    <          2.1E-20 Ry

     iteration # 15     ecut=    60.00 Ry     beta=0.70
     Davidson diagonalization with overlap
     ethr =  1.00E-13,  avg # of iterations =  1.0

     total cpu time spent up to now is       43.8 secs

     End of self-consistent calculation

          k = 0.0000 0.0000 0.0000 (   609 PWs)   bands (ev):

    -8.1719  13.0833  13.0833  13.0833  18.6422  18.6422  18.6422  26.0826

          k =-0.2500 0.2500-0.2500 (   607 PWs)   bands (ev):

    -6.4763   6.5706  11.3670  11.3670  20.8097  20.8097  21.1074  27.4732

          k = 0.5000-0.5000 0.5000 (   610 PWs)   bands (ev):

    -2.4819  -0.1179  10.3239  10.3239  21.4922  21.4922  21.7583  28.6447

          k = 0.2500-0.2500 0.2500 (   607 PWs)   bands (ev):

    -6.4763   6.5706  11.3670  11.3670  20.8097  20.8097  21.1074  27.4732

          k = 0.2500 0.2500 0.2500 (   607 PWs)   bands (ev):

    -6.4763   6.5706  11.3670  11.3670  20.8097  20.8097  21.1074  27.4732

          k = 0.0000 0.5000 0.0000 (   592 PWs)   bands (ev):

    -5.9131   8.5976   9.0286   9.0286  17.5092  23.2589  24.5404  24.5404

          k = 0.7500-0.2500 0.7500 (   616 PWs)   bands (ev):

    -2.2237   2.4157   6.4288   8.2785  19.1417  24.4182  25.7507  26.2186

          k = 0.5000 0.0000 0.5000 (   616 PWs)   bands (ev):

    -3.7572   4.4687   5.5848  10.1170  20.9555  22.9899  25.2904  26.7827

          k =-0.5000-0.5000-0.5000 (   610 PWs)   bands (ev):

    -2.4819  -0.1179  10.3239  10.3239  21.4922  21.4922  21.7583  28.6447

          k =-0.7500-0.2500-0.7500 (   616 PWs)   bands (ev):

    -2.2237   2.4157   6.4288   8.2785  19.1417  24.4182  25.7507  26.2186

          k = 0.0000-1.0000 0.0000 (   620 PWs)   bands (ev):

     0.4401   0.4401   6.8753   6.8753  17.8436  17.8436  29.6413  29.6413

          k =-0.2500-0.7500-0.2500 (   616 PWs)   bands (ev):

    -2.2237   2.4157   6.4288   8.2785  19.1417  24.4182  25.7507  26.2186

          k =-0.2500-0.2500-0.2500 (   607 PWs)   bands (ev):

    -6.4763   6.5706  11.3670  11.3670  20.8097  20.8097  21.1074  27.4732

          k =-0.5000 0.0000-0.5000 (   616 PWs)   bands (ev):

    -3.7572   4.4687   5.5848  10.1170  20.9555  22.9899  25.2904  26.7827

          k = 0.2500-0.7500 0.2500 (   616 PWs)   bands (ev):

    -2.2237   2.4157   6.4288   8.2785  19.1417  24.4182  25.7507  26.2186

          k = 0.0000-0.5000 0.0000 (   592 PWs)   bands (ev):

    -5.9131   8.5976   9.0286   9.0286  17.5092  23.2589  24.5404  24.5404

          k =-0.2500-0.2500 0.2500 (   607 PWs)   bands (ev):

    -6.4763   6.5706  11.3670  11.3670  20.8097  20.8097  21.1074  27.4732

          k =-0.5000 0.0000 0.0000 (   592 PWs)   bands (ev):

    -5.9131   8.5976   9.0286   9.0286  17.5092  23.2589  24.5404  24.5404

          k = 0.2500-0.7500 0.7500 (   616 PWs)   bands (ev):

    -2.2237   2.4157   6.4288   8.2785  19.1417  24.4182  25.7507  26.2186

          k = 0.0000-0.5000 0.5000 (   616 PWs)   bands (ev):

    -3.7572   4.4687   5.5848  10.1170  20.9555  22.9899  25.2904  26.7827

          k = 0.0000 0.0000 0.5000 (   592 PWs)   bands (ev):

    -5.9131   8.5976   9.0286   9.0286  17.5092  23.2589  24.5404  24.5404

          k =-0.2500 0.2500 0.2500 (   607 PWs)   bands (ev):

    -6.4763   6.5706  11.3670  11.3670  20.8097  20.8097  21.1074  27.4732

          k = 0.5000-0.5000 1.0000 (   616 PWs)   bands (ev):

    -3.7572   4.4687   5.5848  10.1170  20.9555  22.9899  25.2904  26.7827

          k = 0.2500-0.2500 0.7500 (   616 PWs)   bands (ev):

    -2.2237   2.4157   6.4288   8.2785  19.1417  24.4182  25.7507  26.2186

          k =-0.7500-0.7500-0.2500 (   616 PWs)   bands (ev):

    -2.2237   2.4157   6.4288   8.2785  19.1417  24.4182  25.7507  26.2186

          k =-1.0000-0.5000-0.5000 (   616 PWs)   bands (ev):

    -3.7572   4.4687   5.5848  10.1170  20.9555  22.9899  25.2904  26.7827

          k =-0.2500-1.2500 0.2500 (   616 PWs)   bands (ev):

    -2.2237   2.4157   6.4288   8.2785  19.1417  24.4182  25.7507  26.2186

          k =-0.5000-1.0000 0.0000 (   616 PWs)   bands (ev):

     1.2086   1.2086   4.8936   4.8936  23.6564  23.6564  25.2169  25.2169

          k =-0.5000-0.5000 0.0000 (   616 PWs)   bands (ev):

    -3.7572   4.4687   5.5848  10.1170  20.9555  22.9899  25.2904  26.7827

          k =-0.7500-0.2500-0.2500 (   616 PWs)   bands (ev):

    -2.2237   2.4157   6.4288   8.2785  19.1417  24.4182  25.7507  26.2186

          k = 0.0000-1.0000 0.5000 (   616 PWs)   bands (ev):

     1.2086   1.2086   4.8936   4.8936  23.6564  23.6564  25.2169  25.2169

          k =-0.2500-0.7500 0.2500 (   616 PWs)   bands (ev):

    -2.2237   2.4157   6.4288   8.2785  19.1417  24.4182  25.7507  26.2186

          k = 0.5000 0.5000-0.5000 (   610 PWs)   bands (ev):

    -2.4819  -0.1179  10.3239  10.3239  21.4922  21.4922  21.7583  28.6447

          k = 0.2500 0.7500-0.7500 (   616 PWs)   bands (ev):

    -2.2237   2.4157   6.4288   8.2785  19.1417  24.4182  25.7507  26.2186

          k = 1.0000 0.0000 0.0000 (   620 PWs)   bands (ev):

     0.4401   0.4401   6.8753   6.8753  17.8436  17.8436  29.6413  29.6413

          k = 0.7500 0.2500-0.2500 (   616 PWs)   bands (ev):

    -2.2237   2.4157   6.4288   8.2785  19.1417  24.4182  25.7507  26.2186

          k = 0.7500 0.7500-0.2500 (   616 PWs)   bands (ev):

    -2.2237   2.4157   6.4288   8.2785  19.1417  24.4182  25.7507  26.2186

          k = 0.5000 1.0000-0.5000 (   616 PWs)   bands (ev):

    -3.7572   4.4687   5.5848  10.1170  20.9555  22.9899  25.2904  26.7827

          k = 1.2500 0.2500 0.2500 (   616 PWs)   bands (ev):

    -2.2237   2.4157   6.4288   8.2785  19.1417  24.4182  25.7507  26.2186

          k = 1.0000 0.5000 0.0000 (   616 PWs)   bands (ev):

     1.2086   1.2086   4.8936   4.8936  23.6564  23.6564  25.2169  25.2169

          k = 0.0000 0.0000-1.0000 (   620 PWs)   bands (ev):

     0.4401   0.4401   6.8753   6.8753  17.8436  17.8436  29.6413  29.6413

          k =-0.2500 0.2500-1.2500 (   616 PWs)   bands (ev):

    -2.2237   2.4157   6.4288   8.2785  19.1417  24.4182  25.7507  26.2186

          k = 0.5000-0.5000-0.5000 (   610 PWs)   bands (ev):

    -2.4819  -0.1179  10.3239  10.3239  21.4922  21.4922  21.7583  28.6447

          k = 0.2500-0.2500-0.7500 (   616 PWs)   bands (ev):

    -2.2237   2.4157   6.4288   8.2785  19.1417  24.4182  25.7507  26.2186

          k = 0.2500 0.2500-0.7500 (   616 PWs)   bands (ev):

    -2.2237   2.4157   6.4288   8.2785  19.1417  24.4182  25.7507  26.2186

          k = 0.0000 0.5000-1.0000 (   616 PWs)   bands (ev):

     1.2086   1.2086   4.8936   4.8936  23.6564  23.6564  25.2169  25.2169

          k = 0.7500-0.2500-0.2500 (   616 PWs)   bands (ev):

    -2.2237   2.4157   6.4288   8.2785  19.1417  24.4182  25.7507  26.2186

          k = 0.5000 0.0000-0.5000 (   616 PWs)   bands (ev):

    -3.7572   4.4687   5.5848  10.1170  20.9555  22.9899  25.2904  26.7827

          k = 0.2500 0.2500-0.2500 (   607 PWs)   bands (ev):

    -6.4763   6.5706  11.3670  11.3670  20.8097  20.8097  21.1074  27.4732

          k = 0.0000 0.5000-0.5000 (   616 PWs)   bands (ev):

    -3.7572   4.4687   5.5848  10.1170  20.9555  22.9899  25.2904  26.7827

          k = 0.7500-0.2500 0.2500 (   616 PWs)   bands (ev):

    -2.2237   2.4157   6.4288   8.2785  19.1417  24.4182  25.7507  26.2186

          k = 0.5000 0.0000 0.0000 (   592 PWs)   bands (ev):

    -5.9131   8.5976   9.0286   9.0286  17.5092  23.2589  24.5404  24.5404

          k = 0.5000 0.5000 0.0000 (   616 PWs)   bands (ev):

    -3.7572   4.4687   5.5848  10.1170  20.9555  22.9899  25.2904  26.7827

          k = 0.2500 0.7500-0.2500 (   616 PWs)   bands (ev):

    -2.2237   2.4157   6.4288   8.2785  19.1417  24.4182  25.7507  26.2186

          k = 1.0000 0.0000 0.5000 (   616 PWs)   bands (ev):

     1.2086   1.2086   4.8936   4.8936  23.6564  23.6564  25.2169  25.2169

          k = 0.7500 0.2500 0.2500 (   616 PWs)   bands (ev):

    -2.2237   2.4157   6.4288   8.2785  19.1417  24.4182  25.7507  26.2186

          k =-0.2500-0.2500-0.7500 (   616 PWs)   bands (ev):

    -2.2237   2.4157   6.4288   8.2785  19.1417  24.4182  25.7507  26.2186

          k =-0.5000 0.0000-1.0000 (   616 PWs)   bands (ev):

     1.2086   1.2086   4.8936   4.8936  23.6564  23.6564  25.2169  25.2169

          k = 0.2500-0.7500-0.2500 (   616 PWs)   bands (ev):

    -2.2237   2.4157   6.4288   8.2785  19.1417  24.4182  25.7507  26.2186

          k = 0.0000-0.5000-0.5000 (   616 PWs)   bands (ev):

    -3.7572   4.4687   5.5848  10.1170  20.9555  22.9899  25.2904  26.7827

          k = 0.0000 0.0000-0.5000 (   592 PWs)   bands (ev):

    -5.9131   8.5976   9.0286   9.0286  17.5092  23.2589  24.5404  24.5404

          k =-0.2500 0.2500-0.7500 (   616 PWs)   bands (ev):

    -2.2237   2.4157   6.4288   8.2785  19.1417  24.4182  25.7507  26.2186

          k = 0.5000-0.5000 0.0000 (   616 PWs)   bands (ev):

    -3.7572   4.4687   5.5848  10.1170  20.9555  22.9899  25.2904  26.7827

          k = 0.2500-0.2500-0.2500 (   607 PWs)   bands (ev):

    -6.4763   6.5706  11.3670  11.3670  20.8097  20.8097  21.1074  27.4732

     highest occupied, lowest unoccupied level (ev):    13.0833   17.5092

!    total energy              =     -22.77383780 Ry
     Harris-Foulkes estimate   =     -22.77383780 Ry
     estimated scf accuracy    <          6.6E-21 Ry

     The total energy is the sum of the following terms:

     one-electron contribution =       7.80469281 Ry
     hartree contribution      =       1.96851888 Ry
     xc contribution           =      -7.09914329 Ry
     ewald contribution        =     -25.44790620 Ry

     convergence has been achieved in  15 iterations

     Writing output data file c.save
 
     init_run     :      0.80s CPU      1.11s WALL (       1 calls)
     electrons    :     41.91s CPU     42.37s WALL (       1 calls)

     Called by init_run:
     wfcinit      :      0.52s CPU      0.58s WALL (       1 calls)
     potinit      :      0.01s CPU      0.05s WALL (       1 calls)

     Called by electrons:
     c_bands      :     40.74s CPU     41.11s WALL (      15 calls)
     sum_band     :      0.94s CPU      0.96s WALL (      15 calls)
     v_of_rho     :      0.13s CPU      0.16s WALL (      16 calls)
     mix_rho      :      0.07s CPU      0.08s WALL (      15 calls)

     Called by c_bands:
     init_us_2    :      0.02s CPU      0.02s WALL (    1984 calls)
     cegterg      :     40.47s CPU     40.82s WALL (     960 calls)

     Called by sum_band:

     Called by *egterg:
     h_psi        :      4.55s CPU      4.69s WALL (    3138 calls)
     g_psi        :      0.00s CPU      0.00s WALL (    2114 calls)
     cdiaghg      :     19.91s CPU     20.00s WALL (    3074 calls)

     Called by h_psi:
     h_psi:pot    :      4.54s CPU      4.68s WALL (    3138 calls)
     h_psi:calbec :      0.43s CPU      0.45s WALL (    3138 calls)
     vloc_psi     :      4.08s CPU      4.20s WALL (    3138 calls)
     add_vuspsi   :      0.02s CPU      0.02s WALL (    3138 calls)

     General routines
     calbec       :      0.42s CPU      0.43s WALL (    3138 calls)
     fft          :      0.36s CPU      0.51s WALL (     175 calls)
     fftw         :      4.86s CPU      4.99s WALL (   48962 calls)
 
     Parallel routines
     fft_scatter  :      4.93s CPU      5.20s WALL (   49137 calls)
 
     PWSCF        :    48.05s CPU        50.76s WALL

 
   This run was terminated on:   2: 1:18   9Jan2021            

=------------------------------------------------------------------------------=
   JOB DONE.
=------------------------------------------------------------------------------=
