
     Program PWSCF v.6.1 (svn rev. 13369) starts on 20Jan2021 at 17:21:33 

     This program is part of the open-source Quantum ESPRESSO suite
     for quantum simulation of materials; please cite
         "P. Giannozzi et al., J. Phys.:Condens. Matter 21 395502 (2009);
          URL http://www.quantum-espresso.org", 
     in publications or presentations arising from this work. More details at
     http://www.quantum-espresso.org/quote

     Parallel version (MPI & OpenMP), running on      80 processor cores
     Number of MPI processes:                80
     Threads/MPI process:                     1
     R & G space division:  proc/nbgrp/npool/nimage =      80
     Waiting for input...
     Reading input from standard input

     Current dimensions of program PWSCF are:
     Max number of different atomic species (ntypx) = 10
     Max number of k-points (npk) =  40000
     Max angular momentum in pseudopotentials (lmaxx) =  3

     IMPORTANT: XC functional enforced from input :
     Exchange-correlation      = PBE ( 1  4  3  4 0 0)
     Any further DFT definition will be discarded
     Please, verify this is what you really want


     Subspace diagonalization in iterative solution of the eigenvalue problem:
     one sub-group per band group will be used
     scalapack distributed-memory algorithm (size of sub-group:  6*  6 procs)

 
     Parallelization info
     --------------------
     sticks:   dense  smooth     PW     G-vecs:    dense   smooth      PW
     Min          61      61     15                 2872     2872     357
     Max          62      62     16                 2881     2881     361
     Sum        4939    4939   1237               230193   230193   28763
 


     bravais-lattice index     =            2
     lattice parameter (alat)  =      26.8137  a.u.
     unit-cell volume          =    4819.5928 (a.u.)^3
     number of atoms/cell      =          128
     number of atomic types    =            2
     number of electrons       =       510.00
     number of Kohn-Sham states=          300
     kinetic-energy cutoff     =      50.0000  Ry
     charge density cutoff     =     200.0000  Ry
     convergence threshold     =      1.0E-10
     mixing beta               =       0.7000
     number of iterations used =            8  local-TF  mixing
     Exchange-correlation      = PBE ( 1  4  3  4 0 0)
     nstep                     =           50


     celldm(1)=  26.813702  celldm(2)=   0.000000  celldm(3)=   0.000000
     celldm(4)=   0.000000  celldm(5)=   0.000000  celldm(6)=   0.000000

     crystal axes: (cart. coord. in units of alat)
               a(1) = (  -0.500000   0.000000   0.500000 )  
               a(2) = (   0.000000   0.500000   0.500000 )  
               a(3) = (  -0.500000   0.500000   0.000000 )  

     reciprocal axes: (cart. coord. in units 2 pi/alat)
               b(1) = ( -1.000000 -1.000000  1.000000 )  
               b(2) = (  1.000000  1.000000  1.000000 )  
               b(3) = ( -1.000000  1.000000 -1.000000 )  


     PseudoPot. # 1 for C  read from file:
     ~/PseudoPotential/upf/C_ONCV_PBE-1.0.upf
     MD5 check sum: Not computed, couldn't open file
     Pseudo is Norm-conserving, Zval =  4.0
     Generated using ONCVPSP code by D. R. Hamann
     Using radial grid of  602 points,  4 beta functions with: 
                l(1) =   0
                l(2) =   0
                l(3) =   1
                l(4) =   1

     PseudoPot. # 2 for B  read from file:
     ~/PseudoPotential/upf/B_ONCV_PBE-1.0.upf
     MD5 check sum: Not computed, couldn't open file
     Pseudo is Norm-conserving, Zval =  3.0
     Generated using ONCVPSP code by D. R. Hamann
     Using radial grid of  602 points,  4 beta functions with: 
                l(1) =   0
                l(2) =   0
                l(3) =   1
                l(4) =   1

     atomic species   valence    mass     pseudopotential
        C              4.00    12.01100     C ( 1.00)
        B              3.00    10.81100     B ( 1.00)

     No symmetry found



   Cartesian axes

     site n.     atom                  positions (alat units)
         1           B   tau(   1) = (   0.0000000   0.0000000   0.0000000  )
         2           B   tau(   2) = (  -0.0625000   0.0625000   0.0625000  )
         3           C   tau(   3) = (  -0.1250000   0.1250000   0.0000000  )
         4           C   tau(   4) = (  -0.1875000   0.1875000   0.0625000  )
         5           C   tau(   5) = (  -0.2500000   0.2500000   0.0000000  )
         6           C   tau(   6) = (  -0.3125000   0.3125000   0.0625000  )
         7           C   tau(   7) = (  -0.3750000   0.3750000   0.0000000  )
         8           C   tau(   8) = (  -0.4375000   0.4375000   0.0625000  )
         9           C   tau(   9) = (   0.0000000   0.1250000   0.1250000  )
        10           C   tau(  10) = (  -0.0625000   0.1875000   0.1875000  )
        11           C   tau(  11) = (  -0.1250000   0.2500000   0.1250000  )
        12           C   tau(  12) = (  -0.1875000   0.3125000   0.1875000  )
        13           C   tau(  13) = (  -0.2500000   0.3750000   0.1250000  )
        14           C   tau(  14) = (  -0.3125000   0.4375000   0.1875000  )
        15           C   tau(  15) = (  -0.3750000   0.5000000   0.1250000  )
        16           C   tau(  16) = (  -0.4375000   0.5625000   0.1875000  )
        17           C   tau(  17) = (   0.0000000   0.2500000   0.2500000  )
        18           C   tau(  18) = (  -0.0625000   0.3125000   0.3125000  )
        19           C   tau(  19) = (  -0.1250000   0.3750000   0.2500000  )
        20           C   tau(  20) = (  -0.1875000   0.4375000   0.3125000  )
        21           C   tau(  21) = (  -0.2500000   0.5000000   0.2500000  )
        22           C   tau(  22) = (  -0.3125000   0.5625000   0.3125000  )
        23           C   tau(  23) = (  -0.3750000   0.6250000   0.2500000  )
        24           C   tau(  24) = (  -0.4375000   0.6875000   0.3125000  )
        25           C   tau(  25) = (   0.0000000   0.3750000   0.3750000  )
        26           C   tau(  26) = (  -0.0625000   0.4375000   0.4375000  )
        27           C   tau(  27) = (  -0.1250000   0.5000000   0.3750000  )
        28           C   tau(  28) = (  -0.1875000   0.5625000   0.4375000  )
        29           C   tau(  29) = (  -0.2500000   0.6250000   0.3750000  )
        30           C   tau(  30) = (  -0.3125000   0.6875000   0.4375000  )
        31           C   tau(  31) = (  -0.3750000   0.7500000   0.3750000  )
        32           C   tau(  32) = (  -0.4375000   0.8125000   0.4375000  )
        33           C   tau(  33) = (  -0.1250000   0.0000000   0.1250000  )
        34           C   tau(  34) = (  -0.1875000   0.0625000   0.1875000  )
        35           C   tau(  35) = (  -0.2500000   0.1250000   0.1250000  )
        36           C   tau(  36) = (  -0.3125000   0.1875000   0.1875000  )
        37           C   tau(  37) = (  -0.3750000   0.2500000   0.1250000  )
        38           C   tau(  38) = (  -0.4375000   0.3125000   0.1875000  )
        39           C   tau(  39) = (  -0.5000000   0.3750000   0.1250000  )
        40           C   tau(  40) = (  -0.5625000   0.4375000   0.1875000  )
        41           C   tau(  41) = (  -0.1250000   0.1250000   0.2500000  )
        42           C   tau(  42) = (  -0.1875000   0.1875000   0.3125000  )
        43           C   tau(  43) = (  -0.2500000   0.2500000   0.2500000  )
        44           C   tau(  44) = (  -0.3125000   0.3125000   0.3125000  )
        45           C   tau(  45) = (  -0.3750000   0.3750000   0.2500000  )
        46           C   tau(  46) = (  -0.4375000   0.4375000   0.3125000  )
        47           C   tau(  47) = (  -0.5000000   0.5000000   0.2500000  )
        48           C   tau(  48) = (  -0.5625000   0.5625000   0.3125000  )
        49           C   tau(  49) = (  -0.1250000   0.2500000   0.3750000  )
        50           C   tau(  50) = (  -0.1875000   0.3125000   0.4375000  )
        51           C   tau(  51) = (  -0.2500000   0.3750000   0.3750000  )
        52           C   tau(  52) = (  -0.3125000   0.4375000   0.4375000  )
        53           C   tau(  53) = (  -0.3750000   0.5000000   0.3750000  )
        54           C   tau(  54) = (  -0.4375000   0.5625000   0.4375000  )
        55           C   tau(  55) = (  -0.5000000   0.6250000   0.3750000  )
        56           C   tau(  56) = (  -0.5625000   0.6875000   0.4375000  )
        57           C   tau(  57) = (  -0.1250000   0.3750000   0.5000000  )
        58           C   tau(  58) = (  -0.1875000   0.4375000   0.5625000  )
        59           C   tau(  59) = (  -0.2500000   0.5000000   0.5000000  )
        60           C   tau(  60) = (  -0.3125000   0.5625000   0.5625000  )
        61           C   tau(  61) = (  -0.3750000   0.6250000   0.5000000  )
        62           C   tau(  62) = (  -0.4375000   0.6875000   0.5625000  )
        63           C   tau(  63) = (  -0.5000000   0.7500000   0.5000000  )
        64           C   tau(  64) = (  -0.5625000   0.8125000   0.5625000  )
        65           C   tau(  65) = (  -0.2500000   0.0000000   0.2500000  )
        66           C   tau(  66) = (  -0.3125000   0.0625000   0.3125000  )
        67           C   tau(  67) = (  -0.3750000   0.1250000   0.2500000  )
        68           C   tau(  68) = (  -0.4375000   0.1875000   0.3125000  )
        69           C   tau(  69) = (  -0.5000000   0.2500000   0.2500000  )
        70           C   tau(  70) = (  -0.5625000   0.3125000   0.3125000  )
        71           C   tau(  71) = (  -0.6250000   0.3750000   0.2500000  )
        72           C   tau(  72) = (  -0.6875000   0.4375000   0.3125000  )
        73           C   tau(  73) = (  -0.2500000   0.1250000   0.3750000  )
        74           C   tau(  74) = (  -0.3125000   0.1875000   0.4375000  )
        75           C   tau(  75) = (  -0.3750000   0.2500000   0.3750000  )
        76           C   tau(  76) = (  -0.4375000   0.3125000   0.4375000  )
        77           C   tau(  77) = (  -0.5000000   0.3750000   0.3750000  )
        78           C   tau(  78) = (  -0.5625000   0.4375000   0.4375000  )
        79           C   tau(  79) = (  -0.6250000   0.5000000   0.3750000  )
        80           C   tau(  80) = (  -0.6875000   0.5625000   0.4375000  )
        81           C   tau(  81) = (  -0.2500000   0.2500000   0.5000000  )
        82           C   tau(  82) = (  -0.3125000   0.3125000   0.5625000  )
        83           C   tau(  83) = (  -0.3750000   0.3750000   0.5000000  )
        84           C   tau(  84) = (  -0.4375000   0.4375000   0.5625000  )
        85           C   tau(  85) = (  -0.5000000   0.5000000   0.5000000  )
        86           C   tau(  86) = (  -0.5625000   0.5625000   0.5625000  )
        87           C   tau(  87) = (  -0.6250000   0.6250000   0.5000000  )
        88           C   tau(  88) = (  -0.6875000   0.6875000   0.5625000  )
        89           C   tau(  89) = (  -0.2500000   0.3750000   0.6250000  )
        90           C   tau(  90) = (  -0.3125000   0.4375000   0.6875000  )
        91           C   tau(  91) = (  -0.3750000   0.5000000   0.6250000  )
        92           C   tau(  92) = (  -0.4375000   0.5625000   0.6875000  )
        93           C   tau(  93) = (  -0.5000000   0.6250000   0.6250000  )
        94           C   tau(  94) = (  -0.5625000   0.6875000   0.6875000  )
        95           C   tau(  95) = (  -0.6250000   0.7500000   0.6250000  )
        96           C   tau(  96) = (  -0.6875000   0.8125000   0.6875000  )
        97           C   tau(  97) = (  -0.3750000   0.0000000   0.3750000  )
        98           C   tau(  98) = (  -0.4375000   0.0625000   0.4375000  )
        99           C   tau(  99) = (  -0.5000000   0.1250000   0.3750000  )
       100           C   tau( 100) = (  -0.5625000   0.1875000   0.4375000  )
       101           C   tau( 101) = (  -0.6250000   0.2500000   0.3750000  )
       102           C   tau( 102) = (  -0.6875000   0.3125000   0.4375000  )
       103           C   tau( 103) = (  -0.7500000   0.3750000   0.3750000  )
       104           C   tau( 104) = (  -0.8125000   0.4375000   0.4375000  )
       105           C   tau( 105) = (  -0.3750000   0.1250000   0.5000000  )
       106           C   tau( 106) = (  -0.4375000   0.1875000   0.5625000  )
       107           C   tau( 107) = (  -0.5000000   0.2500000   0.5000000  )
       108           C   tau( 108) = (  -0.5625000   0.3125000   0.5625000  )
       109           C   tau( 109) = (  -0.6250000   0.3750000   0.5000000  )
       110           C   tau( 110) = (  -0.6875000   0.4375000   0.5625000  )
       111           C   tau( 111) = (  -0.7500000   0.5000000   0.5000000  )
       112           C   tau( 112) = (  -0.8125000   0.5625000   0.5625000  )
       113           C   tau( 113) = (  -0.3750000   0.2500000   0.6250000  )
       114           C   tau( 114) = (  -0.4375000   0.3125000   0.6875000  )
       115           C   tau( 115) = (  -0.5000000   0.3750000   0.6250000  )
       116           C   tau( 116) = (  -0.5625000   0.4375000   0.6875000  )
       117           C   tau( 117) = (  -0.6250000   0.5000000   0.6250000  )
       118           C   tau( 118) = (  -0.6875000   0.5625000   0.6875000  )
       119           C   tau( 119) = (  -0.7500000   0.6250000   0.6250000  )
       120           C   tau( 120) = (  -0.8125000   0.6875000   0.6875000  )
       121           C   tau( 121) = (  -0.3750000   0.3750000   0.7500000  )
       122           C   tau( 122) = (  -0.4375000   0.4375000   0.8125000  )
       123           C   tau( 123) = (  -0.5000000   0.5000000   0.7500000  )
       124           C   tau( 124) = (  -0.5625000   0.5625000   0.8125000  )
       125           C   tau( 125) = (  -0.6250000   0.6250000   0.7500000  )
       126           C   tau( 126) = (  -0.6875000   0.6875000   0.8125000  )
       127           C   tau( 127) = (  -0.7500000   0.7500000   0.7500000  )
       128           C   tau( 128) = (  -0.8125000   0.8125000   0.8125000  )

     number of k points=     1
                       cart. coord. in units 2pi/alat
        k(    1) = (   0.0000000   0.0000000   0.0000000), wk =   2.0000000

     Dense  grid:   230193 G-vectors     FFT dimensions: (  90,  90,  90)

     Estimated max dynamical RAM per process >      14.32MB

     Estimated total allocated dynamical RAM >    1145.88MB

     Initial potential from superposition of free atoms

     starting charge  509.08802, renormalised to  510.00000
     Starting wfc are random

     total cpu time spent up to now is        3.0 secs

     per-process dynamical memory:    57.7 Mb

     Self-consistent Calculation

     iteration #  1     ecut=    50.00 Ry     beta=0.70
     CG style diagonalization
     ethr =  1.00E-02,  avg # of iterations = 12.2

     total cpu time spent up to now is       25.7 secs

     total energy              =   -1443.60320529 Ry
     Harris-Foulkes estimate   =   -1446.35148091 Ry
     estimated scf accuracy    <       8.80450929 Ry

     iteration #  2     ecut=    50.00 Ry     beta=0.70
     CG style diagonalization
     ethr =  1.73E-03,  avg # of iterations =  4.1

     negative rho (up, down):  4.006E-05 0.000E+00

     total cpu time spent up to now is       32.2 secs

     total energy              =   -1444.82558210 Ry
     Harris-Foulkes estimate   =   -1445.56497933 Ry
     estimated scf accuracy    <       1.89276301 Ry

     iteration #  3     ecut=    50.00 Ry     beta=0.70
     CG style diagonalization
     ethr =  3.71E-04,  avg # of iterations =  3.8

     total cpu time spent up to now is       37.9 secs

     total energy              =   -1445.04122145 Ry
     Harris-Foulkes estimate   =   -1445.04037631 Ry
     estimated scf accuracy    <       0.03773958 Ry

     iteration #  4     ecut=    50.00 Ry     beta=0.70
     CG style diagonalization
     c_bands:  5 eigenvalues not converged
     ethr =  7.40E-06,  avg # of iterations =  5.9

     total cpu time spent up to now is       47.5 secs

     total energy              =   -1445.08378875 Ry
     Harris-Foulkes estimate   =   -1445.08428304 Ry
     estimated scf accuracy    <       0.00996395 Ry

     iteration #  5     ecut=    50.00 Ry     beta=0.70
     CG style diagonalization
     c_bands:  5 eigenvalues not converged
     ethr =  1.95E-06,  avg # of iterations =  3.5

     total cpu time spent up to now is       52.5 secs

     total energy              =   -1445.08340207 Ry
     Harris-Foulkes estimate   =   -1445.08445241 Ry
     estimated scf accuracy    <       0.00403020 Ry

     iteration #  6     ecut=    50.00 Ry     beta=0.70
     CG style diagonalization
     c_bands:  5 eigenvalues not converged
     ethr =  7.90E-07,  avg # of iterations =  4.5

     total cpu time spent up to now is       59.4 secs

     total energy              =   -1445.08409187 Ry
     Harris-Foulkes estimate   =   -1445.08426156 Ry
     estimated scf accuracy    <       0.00062650 Ry

     iteration #  7     ecut=    50.00 Ry     beta=0.70
     CG style diagonalization
     c_bands:  5 eigenvalues not converged
     ethr =  1.23E-07,  avg # of iterations =  4.5

     total cpu time spent up to now is       66.2 secs

     total energy              =   -1445.08416305 Ry
     Harris-Foulkes estimate   =   -1445.08423926 Ry
     estimated scf accuracy    <       0.00028535 Ry

     iteration #  8     ecut=    50.00 Ry     beta=0.70
     CG style diagonalization
     c_bands:  5 eigenvalues not converged
     ethr =  5.60E-08,  avg # of iterations =  4.3

     total cpu time spent up to now is       72.8 secs

     total energy              =   -1445.08418936 Ry
     Harris-Foulkes estimate   =   -1445.08421089 Ry
     estimated scf accuracy    <       0.00005816 Ry

     iteration #  9     ecut=    50.00 Ry     beta=0.70
     CG style diagonalization
     c_bands:  5 eigenvalues not converged
     ethr =  1.14E-08,  avg # of iterations =  4.0

     total cpu time spent up to now is       78.8 secs

     total energy              =   -1445.08419075 Ry
     Harris-Foulkes estimate   =   -1445.08419734 Ry
     estimated scf accuracy    <       0.00001585 Ry

     iteration # 10     ecut=    50.00 Ry     beta=0.70
     CG style diagonalization
     c_bands:  5 eigenvalues not converged
     ethr =  3.11E-09,  avg # of iterations =  5.1

     total cpu time spent up to now is       86.9 secs

     total energy              =   -1445.08419547 Ry
     Harris-Foulkes estimate   =   -1445.08419854 Ry
     estimated scf accuracy    <       0.00000681 Ry

     iteration # 11     ecut=    50.00 Ry     beta=0.70
     CG style diagonalization
     c_bands:  5 eigenvalues not converged
     ethr =  1.33E-09,  avg # of iterations =  4.0

     total cpu time spent up to now is       92.7 secs

     total energy              =   -1445.08419633 Ry
     Harris-Foulkes estimate   =   -1445.08419653 Ry
     estimated scf accuracy    <       0.00000063 Ry

     iteration # 12     ecut=    50.00 Ry     beta=0.70
     CG style diagonalization
     c_bands:  5 eigenvalues not converged
     ethr =  1.23E-10,  avg # of iterations =  5.5

     total cpu time spent up to now is      101.4 secs

     total energy              =   -1445.08419645 Ry
     Harris-Foulkes estimate   =   -1445.08419675 Ry
     estimated scf accuracy    <       0.00000067 Ry

     iteration # 13     ecut=    50.00 Ry     beta=0.70
     CG style diagonalization
     c_bands:  5 eigenvalues not converged
     ethr =  1.23E-10,  avg # of iterations =  3.9

     total cpu time spent up to now is      107.1 secs

     total energy              =   -1445.08419654 Ry
     Harris-Foulkes estimate   =   -1445.08419655 Ry
     estimated scf accuracy    <       0.00000004 Ry

     iteration # 14     ecut=    50.00 Ry     beta=0.70
     CG style diagonalization
     c_bands:  5 eigenvalues not converged
     ethr =  8.50E-12,  avg # of iterations =  5.6

     total cpu time spent up to now is      116.0 secs

     total energy              =   -1445.08419655 Ry
     Harris-Foulkes estimate   =   -1445.08419657 Ry
     estimated scf accuracy    <       0.00000005 Ry

     iteration # 15     ecut=    50.00 Ry     beta=0.70
     CG style diagonalization
     c_bands:  5 eigenvalues not converged
     ethr =  8.50E-12,  avg # of iterations =  3.6

     total cpu time spent up to now is      121.5 secs

     total energy              =   -1445.08419655 Ry
     Harris-Foulkes estimate   =   -1445.08419656 Ry
     estimated scf accuracy    <          8.3E-09 Ry

     iteration # 16     ecut=    50.00 Ry     beta=0.70
     CG style diagonalization
     c_bands:  5 eigenvalues not converged
     ethr =  1.63E-12,  avg # of iterations =  5.5

     total cpu time spent up to now is      130.3 secs

     total energy              =   -1445.08419655 Ry
     Harris-Foulkes estimate   =   -1445.08419656 Ry
     estimated scf accuracy    <       0.00000002 Ry

     iteration # 17     ecut=    50.00 Ry     beta=0.70
     CG style diagonalization
     c_bands:  5 eigenvalues not converged
     ethr =  1.63E-12,  avg # of iterations =  4.4

     total cpu time spent up to now is      137.0 secs

     total energy              =   -1445.08419655 Ry
     Harris-Foulkes estimate   =   -1445.08419656 Ry
     estimated scf accuracy    <          9.7E-10 Ry

     iteration # 18     ecut=    50.00 Ry     beta=0.70
     CG style diagonalization
     c_bands:  5 eigenvalues not converged
     ethr =  1.89E-13,  avg # of iterations =  5.3

     total cpu time spent up to now is      145.4 secs

     total energy              =   -1445.08419656 Ry
     Harris-Foulkes estimate   =   -1445.08419656 Ry
     estimated scf accuracy    <          3.8E-10 Ry

     iteration # 19     ecut=    50.00 Ry     beta=0.70
     CG style diagonalization
     c_bands:  5 eigenvalues not converged
     ethr =  1.00E-13,  avg # of iterations =  3.4

     total cpu time spent up to now is      150.4 secs

     total energy              =   -1445.08419656 Ry
     Harris-Foulkes estimate   =   -1445.08419656 Ry
     estimated scf accuracy    <          2.1E-10 Ry

     iteration # 20     ecut=    50.00 Ry     beta=0.70
     CG style diagonalization
     c_bands:  5 eigenvalues not converged
     ethr =  1.00E-13,  avg # of iterations =  3.6

     total cpu time spent up to now is      155.7 secs

     End of self-consistent calculation

          k = 0.0000 0.0000 0.0000 ( 28763 PWs)   bands (ev):

    -8.0704  -6.4350  -6.4035  -6.3902  -6.3902  -6.3438  -6.3438  -6.3128
    -6.1906  -5.7974  -5.7974  -5.7327  -5.7327  -5.7284  -5.2914  -3.5949
    -3.5949  -3.5926  -3.5926  -3.5780  -3.5761  -3.5449  -3.5449  -3.5217
    -3.5217  -3.4419  -3.2634  -2.2583  -2.2583  -2.2571  -2.2308  -2.0668
    -2.0510  -2.0496  -2.0496  -2.0471  -2.0471  -2.0251  -2.0251  -2.0108
    -2.0108  -2.0075  -2.0065  -2.0065  -1.9996  -1.9921  -1.9648  -1.9210
    -1.9210  -1.8262  -1.8262  -1.8199  -1.8199  -1.2885  -0.4705   0.0944
     0.1002   0.1002   0.1009   0.7451   0.7451   0.7686   0.7686   0.8228
     0.8763   1.5198   1.5198   1.5225   1.5225   1.5443   1.5638   1.5976
     1.5976   1.6117   1.6117   1.8708   2.0123   2.6567   2.6668   2.6668
     2.6692   2.6692   2.6737   2.6737   2.6791   2.6791   2.6947   2.6947
     2.6970   2.7318   2.7318   2.7398   2.7398   2.7406   2.8117   2.8256
     2.8256   2.9464   2.9464   3.4939   3.7361   4.8197   4.8197   4.8210
     4.8210   4.8214   4.8566   4.8819   4.8819   4.8837   4.8837   5.1211
     5.1289   5.1305   5.1441   5.1487   5.1487   5.1568   5.1568   5.2036
     5.2036   5.2690   5.2690   5.2929   5.3999   5.8743   5.8892   5.8892
     5.8947   5.8947   5.9249   5.9249   5.9373   5.9824   5.9879   5.9879
     6.0555   6.7219   6.7279   6.7445   6.7445   6.7477   6.7477   6.7534
     6.7595   6.7595   6.7716   6.7968   6.7968   6.7990   6.7990   6.8104
     6.8333   6.8333   6.8728   6.9012   6.9034   6.9298   6.9298   6.9332
     6.9332   6.9878   7.0324   7.0804   7.0804   7.0940   7.0940   7.2302
     7.2750   7.2750   7.3596   7.3994   7.3994   7.6393   7.7282   8.5988
     8.6016   8.6130   8.6130   8.6152   8.6152   8.6243   8.6243   8.6298
     8.6350   8.6350   8.6368   8.6820   8.6820   8.6831   8.6835   8.6835
     8.7210   8.7383   8.8523   8.8523   8.9386   8.9386   8.9586   9.1227
     9.1227   9.1501   9.1501   9.2441   9.4238   9.4330   9.4330   9.4402
     9.4402   9.4633   9.4768   9.6197   9.6197   9.6903   9.7624   9.7624
     9.8146  10.5380  10.5380  10.5466  10.5711  10.5804  10.5903  10.5903
    10.6037  10.6059  10.6059  10.6225  10.6225  10.7913  10.7913  10.8288
    11.0386  11.0386  11.0451  11.0451  11.2213  11.8140  11.8140  11.8325
    11.8334  11.8334  11.8476  11.8476  11.8630  11.8671  11.8676  11.8676
    12.1590  12.1590  12.4876  12.4876  12.9477  13.8687  13.8687  14.0578
    18.1246  18.1246  18.1446  18.1524  18.1524  18.1905  18.4470  18.4470
    18.4518  18.4518  18.5036  18.5457  19.3123  19.3160  19.3160  19.7274
    19.7291  19.7291  19.7411  19.7411  19.7446  19.7474  19.7477  19.7477
    19.7517  19.7517  19.7669  19.7745  19.7996  19.7996  19.8005  19.8005
    19.8756  19.9396  19.9396  19.9467  19.9467  20.0792  20.2332  21.4867
    21.4868  21.4933  21.4955  21.4977

     highest occupied, lowest unoccupied level (ev):    13.8687   14.0578

!    total energy              =   -1445.08419656 Ry
     Harris-Foulkes estimate   =   -1445.08419656 Ry
     estimated scf accuracy    <          2.3E-12 Ry

     The total energy is the sum of the following terms:

     one-electron contribution =     519.68278907 Ry
     hartree contribution      =     123.15699192 Ry
     xc contribution           =    -455.04385180 Ry
     ewald contribution        =   -1632.88012574 Ry

     convergence has been achieved in  20 iterations

     Forces acting on atoms (cartesian axes, Ry/au):

     atom    1 type  2   force =     0.12886460   -0.12886451   -0.12886460
     atom    2 type  2   force =    -0.12875015    0.12875024    0.12875011
     atom    3 type  1   force =    -0.00151593    0.00151588   -0.07722027
     atom    4 type  1   force =    -0.01490863    0.01490864    0.01974026
     atom    5 type  1   force =     0.01061717   -0.01061726   -0.01366687
     atom    6 type  1   force =    -0.01066028    0.01066032    0.01371808
     atom    7 type  1   force =     0.01494733   -0.01494734   -0.01969814
     atom    8 type  1   force =     0.00155435   -0.00155434    0.07726483
     atom    9 type  1   force =     0.07722027    0.00151594    0.00151596
     atom   10 type  1   force =    -0.01974021    0.01490867    0.01490867
     atom   11 type  1   force =     0.00868549   -0.01291902   -0.00868550
     atom   12 type  1   force =    -0.00733057    0.00798475    0.00733057
     atom   13 type  1   force =     0.00532575   -0.00609707   -0.00627043
     atom   14 type  1   force =    -0.00412706    0.01292675    0.00897915
     atom   15 type  1   force =     0.01201742   -0.02110418   -0.00718997
     atom   16 type  1   force =    -0.00715104    0.02114948    0.01198011
     atom   17 type  1   force =     0.01366688   -0.01061723   -0.01061719
     atom   18 type  1   force =    -0.01371807    0.01066028    0.01066026
     atom   19 type  1   force =     0.00627039   -0.00609704   -0.00532576
     atom   20 type  1   force =    -0.00897920    0.01292682    0.00412700
     atom   21 type  1   force =     0.00524088   -0.00963613   -0.00524087
     atom   22 type  1   force =    -0.00528782    0.00968041    0.00528785
     atom   23 type  1   force =     0.00902056   -0.01296936   -0.00408432
     atom   24 type  1   force =    -0.00622823    0.00605489    0.00536772
     atom   25 type  1   force =     0.01969810   -0.01494734   -0.01494737
     atom   26 type  1   force =    -0.07726485   -0.00155440   -0.00155441
     atom   27 type  1   force =     0.00718992   -0.02110418   -0.01201747
     atom   28 type  1   force =    -0.01198007    0.02114952    0.00715107
     atom   29 type  1   force =     0.00408433   -0.01296935   -0.00902055
     atom   30 type  1   force =    -0.00536771    0.00605491    0.00622823
     atom   31 type  1   force =     0.00736603   -0.00794030   -0.00736605
     atom   32 type  1   force =    -0.00865012    0.01296398    0.00865016
     atom   33 type  1   force =    -0.00151590   -0.07722028    0.00151591
     atom   34 type  1   force =    -0.01490866    0.01974026    0.01490866
     atom   35 type  1   force =     0.01291903   -0.00868552   -0.00868549
     atom   36 type  1   force =    -0.00798478    0.00733056    0.00733057
     atom   37 type  1   force =     0.00609707   -0.00532576   -0.00627042
     atom   38 type  1   force =    -0.01292675    0.00412704    0.00897914
     atom   39 type  1   force =     0.02110414   -0.01201746   -0.00718997
     atom   40 type  1   force =    -0.02114945    0.00715108    0.01198009
     atom   41 type  1   force =     0.00868551   -0.00868553   -0.01291900
     atom   42 type  1   force =    -0.00733058    0.00733060    0.00798477
     atom   43 type  1   force =     0.00666373   -0.00666370   -0.00666370
     atom   44 type  1   force =    -0.00667291    0.00667290    0.00667288
     atom   45 type  1   force =     0.00478622   -0.00478621   -0.00684595
     atom   46 type  1   force =    -0.00533230    0.00533232    0.00600745
     atom   47 type  1   force =     0.00600578   -0.00600578   -0.00975842
     atom   48 type  1   force =    -0.00363225    0.00363229    0.00490640
     atom   49 type  1   force =     0.00627042   -0.00532577   -0.00609706
     atom   50 type  1   force =    -0.00897916    0.00412704    0.01292679
     atom   51 type  1   force =     0.00684595   -0.00478618   -0.00478619
     atom   52 type  1   force =    -0.00600749    0.00533232    0.00533230
     atom   53 type  1   force =     0.00476781   -0.00532232   -0.00476779
     atom   54 type  1   force =    -0.00368225    0.00381134    0.00368225
     atom   55 type  1   force =     0.00342920   -0.00441377   -0.00420854
     atom   56 type  1   force =    -0.00347190    0.00417446    0.00437967
     atom   57 type  1   force =     0.00718995   -0.01201746   -0.02110415
     atom   58 type  1   force =    -0.01198003    0.00715111    0.02114953
     atom   59 type  1   force =     0.00975841   -0.00600579   -0.00600575
     atom   60 type  1   force =    -0.00490645    0.00363230    0.00363227
     atom   61 type  1   force =     0.00420853   -0.00441379   -0.00342920
     atom   62 type  1   force =    -0.00437968    0.00417445    0.00347192
     atom   63 type  1   force =     0.00359432   -0.00486786   -0.00359434
     atom   64 type  1   force =    -0.00604884    0.00980260    0.00604887
     atom   65 type  1   force =     0.01061724   -0.01366687   -0.01061722
     atom   66 type  1   force =    -0.01066031    0.01371814    0.01066029
     atom   67 type  1   force =     0.00609703   -0.00627044   -0.00532575
     atom   68 type  1   force =    -0.01292680    0.00897915    0.00412706
     atom   69 type  1   force =     0.00963612   -0.00524087   -0.00524091
     atom   70 type  1   force =    -0.00968042    0.00528782    0.00528788
     atom   71 type  1   force =     0.01296934   -0.00902055   -0.00408437
     atom   72 type  1   force =    -0.00605487    0.00622824    0.00536775
     atom   73 type  1   force =     0.00532578   -0.00627044   -0.00609707
     atom   74 type  1   force =    -0.00412704    0.00897915    0.01292675
     atom   75 type  1   force =     0.00478620   -0.00684595   -0.00478620
     atom   76 type  1   force =    -0.00533233    0.00600743    0.00533233
     atom   77 type  1   force =     0.00532234   -0.00476780   -0.00476780
     atom   78 type  1   force =    -0.00381131    0.00368225    0.00368224
     atom   79 type  1   force =     0.00441379   -0.00342921   -0.00420854
     atom   80 type  1   force =    -0.00417442    0.00347193    0.00437971
     atom   81 type  1   force =     0.00524093   -0.00524090   -0.00963614
     atom   82 type  1   force =    -0.00528787    0.00528783    0.00968043
     atom   83 type  1   force =     0.00476781   -0.00476780   -0.00532234
     atom   84 type  1   force =    -0.00368223    0.00368223    0.00381133
     atom   85 type  1   force =     0.00375975   -0.00375976   -0.00375975
     atom   86 type  1   force =    -0.00380602    0.00380601    0.00380601
     atom   87 type  1   force =     0.00372450   -0.00372449   -0.00376926
     atom   88 type  1   force =    -0.00472542    0.00472541    0.00536464
     atom   89 type  1   force =     0.00408435   -0.00902056   -0.01296933
     atom   90 type  1   force =    -0.00536771    0.00622826    0.00605491
     atom   91 type  1   force =     0.00420853   -0.00342922   -0.00441379
     atom   92 type  1   force =    -0.00437969    0.00347193    0.00417446
     atom   93 type  1   force =     0.00376925   -0.00372450   -0.00372450
     atom   94 type  1   force =    -0.00536459    0.00472540    0.00472544
     atom   95 type  1   force =     0.00536519   -0.00596540   -0.00536521
     atom   96 type  1   force =    -0.00475060    0.00689060    0.00475059
     atom   97 type  1   force =     0.01494735   -0.01969812   -0.01494735
     atom   98 type  1   force =     0.00155436    0.07726484   -0.00155437
     atom   99 type  1   force =     0.02110414   -0.00718997   -0.01201749
     atom  100 type  1   force =    -0.02114948    0.01198012    0.00715106
     atom  101 type  1   force =     0.01296936   -0.00408435   -0.00902054
     atom  102 type  1   force =    -0.00605495    0.00536774    0.00622822
     atom  103 type  1   force =     0.00794032   -0.00736603   -0.00736604
     atom  104 type  1   force =    -0.01296396    0.00865014    0.00865016
     atom  105 type  1   force =     0.01201742   -0.00719001   -0.02110420
     atom  106 type  1   force =    -0.00715110    0.01198010    0.02114949
     atom  107 type  1   force =     0.00600574   -0.00975842   -0.00600571
     atom  108 type  1   force =    -0.00363231    0.00490643    0.00363228
     atom  109 type  1   force =     0.00441379   -0.00420852   -0.00342920
     atom  110 type  1   force =    -0.00417447    0.00437969    0.00347193
     atom  111 type  1   force =     0.00486785   -0.00359430   -0.00359431
     atom  112 type  1   force =    -0.00980259    0.00604889    0.00604889
     atom  113 type  1   force =     0.00902055   -0.00408436   -0.01296932
     atom  114 type  1   force =    -0.00622826    0.00536771    0.00605495
     atom  115 type  1   force =     0.00342918   -0.00420855   -0.00441377
     atom  116 type  1   force =    -0.00347192    0.00437968    0.00417446
     atom  117 type  1   force =     0.00372449   -0.00376926   -0.00372448
     atom  118 type  1   force =    -0.00472542    0.00536463    0.00472540
     atom  119 type  1   force =     0.00596545   -0.00536519   -0.00536518
     atom  120 type  1   force =    -0.00689059    0.00475057    0.00475058
     atom  121 type  1   force =     0.00736606   -0.00736608   -0.00794030
     atom  122 type  1   force =    -0.00865015    0.00865015    0.01296396
     atom  123 type  1   force =     0.00359429   -0.00359431   -0.00486781
     atom  124 type  1   force =    -0.00604890    0.00604893    0.00980258
     atom  125 type  1   force =     0.00536519   -0.00536522   -0.00596542
     atom  126 type  1   force =    -0.00475058    0.00475057    0.00689060
     atom  127 type  1   force =     0.00662967   -0.00662964   -0.00662967
     atom  128 type  1   force =    -0.00670324    0.00670323    0.00670326

     Total force =     0.403925     Total SCF correction =     0.000004


     Computing stress (Cartesian axis) and pressure

          total   stress  (Ry/bohr**3)                   (kbar)     P=  -31.97
  -0.00021736   0.00002150   0.00002150        -31.97      3.16      3.16
   0.00002150  -0.00021736  -0.00002150          3.16    -31.97     -3.16
   0.00002150  -0.00002150  -0.00021736          3.16     -3.16    -31.97


     BFGS Geometry Optimization

     number of scf cycles    =   1
     number of bfgs steps    =   0

     enthalpy new            =   -1445.0841965552 Ry

     new trust radius        =       0.2231999797 bohr
     new conv_thr            =            1.0E-10 Ry

     new unit-cell volume =   4741.44566 a.u.^3 (   702.60975 Ang^3 )
     density =      3.62782 g/cm^3

CELL_PARAMETERS (alat= 26.81370204)
  -0.497014244  -0.000537503   0.497014244
   0.000537502   0.497014243   0.497014244
  -0.497014243   0.497014244  -0.000537503

ATOMIC_POSITIONS (crystal)
B       -0.004805927  -0.004805920  -0.004805920
B        0.067301650   0.067301657   0.067301660
C       -0.002879879  -0.002879883   0.252992950
C        0.063236200   0.063236201   0.312875816
C       -0.000509694  -0.000509700   0.499717773
C        0.063011605   0.063011609   0.562783531
C       -0.000734629  -0.000734630   0.749619727
C        0.065381542   0.065381543   0.809502521
C       -0.002879880   0.252992954  -0.002879882
C        0.063236199   0.312875820   0.063236198
C       -0.000166033   0.249518193   0.249518194
C        0.062748992   0.312797786   0.312797786
C       -0.000205086   0.249737382   0.499807845
C        0.062506692   0.313163051   0.562801139
C        0.000070740   0.249392970   0.749032896
C        0.062424728   0.313468853   0.813108659
C       -0.000509696   0.499717773  -0.000509699
C        0.063011606   0.562783529   0.063011608
C       -0.000205086   0.499807844   0.249737386
C        0.062506690   0.562801138   0.313163057
C       -0.000031537   0.499640627   0.499640626
C        0.062533388   0.562861026   0.562861024
C       -0.000005054   0.499700410   0.749332222
C        0.062706651   0.562693721   0.812757906
C       -0.000734629   0.749619724  -0.000734627
C        0.065381543   0.809502515   0.065381544
C        0.000070739   0.749032893   0.249392973
C        0.062424726   0.813108663   0.313468852
C       -0.000005055   0.749332223   0.499700410
C        0.062706649   0.812757907   0.562693722
C       -0.000253295   0.749703871   0.749703872
C        0.062661719   0.812983485   0.812983482
C        0.252992951  -0.002879881  -0.002879882
C        0.312875817   0.063236200   0.063236201
C        0.249518194  -0.000166034   0.249518192
C        0.312797788   0.062748990   0.312797787
C        0.249737383  -0.000205086   0.499807844
C        0.313163051   0.062506692   0.562801139
C        0.249392973   0.000070736   0.749032896
C        0.313468851   0.062424729   0.813108660
C        0.249518195   0.249518193  -0.000166036
C        0.312797786   0.312797788   0.062748992
C        0.249751480   0.249751483   0.249751480
C        0.312748861   0.312748860   0.312748863
C        0.249744684   0.249744685   0.499898318
C        0.312724044   0.312724045   0.562673686
C        0.249636066   0.249636066   0.749915970
C        0.312682980   0.312682983   0.812587945
C        0.249737384   0.499807844  -0.000205087
C        0.313163053   0.562801139   0.062506691
C        0.249744684   0.499898320   0.249744685
C        0.312724045   0.562673685   0.312724046
C        0.249842869   0.499801508   0.499801506
C        0.312632513   0.562642142   0.562642141
C        0.249879764   0.499806326   0.749864456
C        0.312637136   0.562689538   0.812621829
C        0.249392973   0.749032895   0.000070738
C        0.313468850   0.813108667   0.062424725
C        0.249636068   0.749915971   0.249636065
C        0.312682982   0.812587944   0.312682984
C        0.249879766   0.749864455   0.499806326
C        0.312637137   0.812621829   0.562689538
C        0.249913447   0.749818456   0.749818457
C        0.312585595   0.812865583   0.812865581
C        0.499717772  -0.000509697  -0.000509698
C        0.562783529   0.063011608   0.063011610
C        0.499807846  -0.000205088   0.249737384
C        0.562801141   0.062506691   0.313163052
C        0.499640626  -0.000031538   0.499640628
C        0.562861027   0.062533389   0.562861023
C        0.499700409  -0.000005057   0.749332225
C        0.562693721   0.062706652   0.812757904
C        0.499807844   0.249737383  -0.000205087
C        0.562801139   0.313163051   0.062506692
C        0.499898319   0.249744684   0.249744685
C        0.562673688   0.312724043   0.312724043
C        0.499801507   0.249842869   0.499801507
C        0.562642140   0.312632514   0.562642140
C        0.499806326   0.249879765   0.749864455
C        0.562689537   0.312637139   0.812621827
C        0.499640625   0.499640627  -0.000031539
C        0.562861027   0.562861024   0.062533389
C        0.499801506   0.499801507   0.249842869
C        0.562642141   0.562642141   0.312632512
C        0.499859783   0.499859782   0.499859782
C        0.562641943   0.562641942   0.562641943
C        0.499859427   0.499859428   0.749862767
C        0.562700071   0.562700070   0.812652392
C        0.499700410   0.749332224  -0.000005056
C        0.562693720   0.812757908   0.062706651
C        0.499806326   0.749864454   0.249879765
C        0.562689538   0.812621830   0.312637138
C        0.499859428   0.749862766   0.499859428
C        0.562700070   0.812652394   0.562700067
C        0.499822292   0.749777524   0.749777525
C        0.562597360   0.812756980   0.812756981
C        0.749619725  -0.000734629  -0.000734629
C        0.809502519   0.065381543   0.065381544
C        0.749032895   0.000070736   0.249392974
C        0.813108660   0.062424728   0.313468853
C        0.749332224  -0.000005054   0.499700408
C        0.812757907   0.062706649   0.562693724
C        0.749703870  -0.000253294   0.749703871
C        0.812983483   0.062661721   0.812983482
C        0.749032897   0.249392968   0.000070739
C        0.813108662   0.313468851   0.062424729
C        0.749915975   0.249636067   0.249636065
C        0.812587946   0.312682981   0.312682983
C        0.749864455   0.249879766   0.499806326
C        0.812621830   0.312637137   0.562689539
C        0.749818456   0.249913449   0.749818457
C        0.812865581   0.312585598   0.812865582
C        0.749332225   0.499700410  -0.000005056
C        0.812757909   0.562693722   0.062706649
C        0.749864458   0.499806325   0.249879764
C        0.812621829   0.562689538   0.312637137
C        0.749862768   0.499859428   0.499859427
C        0.812652392   0.562700070   0.562700072
C        0.749777523   0.499822295   0.749777522
C        0.812756981   0.562597359   0.812756980
C        0.749703872   0.749703871  -0.000253297
C        0.812983483   0.812983482   0.062661721
C        0.749818459   0.749818457   0.249913448
C        0.812865580   0.812865582   0.312585600
C        0.749777524   0.749777522   0.499822293
C        0.812756981   0.812756980   0.562597359
C        0.749752750   0.749752752   0.749752752
C        0.812749994   0.812749994   0.812749992



     Writing output data file b.save
     NEW-OLD atomic charge density approx. for the potential
     extrapolated charge  501.60936, renormalised to  510.00000

     total cpu time spent up to now is      158.1 secs

     per-process dynamical memory:    64.9 Mb

     Self-consistent Calculation

     iteration #  1     ecut=    50.00 Ry     beta=0.70
     CG style diagonalization
     c_bands:  5 eigenvalues not converged
     ethr =  1.00E-06,  avg # of iterations = 20.6

     total cpu time spent up to now is      193.6 secs

     total energy              =   -1445.10215192 Ry
     Harris-Foulkes estimate   =   -1439.45061770 Ry
     estimated scf accuracy    <       0.24851900 Ry

     iteration #  2     ecut=    50.00 Ry     beta=0.70
     CG style diagonalization
     c_bands:  1 eigenvalues not converged
     ethr =  4.87E-05,  avg # of iterations =  3.5

     total cpu time spent up to now is      198.8 secs

     total energy              =   -1445.14947256 Ry
     Harris-Foulkes estimate   =   -1445.15105783 Ry
     estimated scf accuracy    <       0.00741450 Ry

     iteration #  3     ecut=    50.00 Ry     beta=0.70
     CG style diagonalization
     c_bands:  3 eigenvalues not converged
     ethr =  1.45E-06,  avg # of iterations =  4.8

     total cpu time spent up to now is      206.0 secs

     total energy              =   -1445.15126688 Ry
     Harris-Foulkes estimate   =   -1445.15190973 Ry
     estimated scf accuracy    <       0.00176678 Ry

     iteration #  4     ecut=    50.00 Ry     beta=0.70
     CG style diagonalization
     c_bands:  1 eigenvalues not converged
     ethr =  3.46E-07,  avg # of iterations =  4.0

     total cpu time spent up to now is      212.0 secs

     total energy              =   -1445.15143523 Ry
     Harris-Foulkes estimate   =   -1445.15148711 Ry
     estimated scf accuracy    <       0.00033057 Ry

     iteration #  5     ecut=    50.00 Ry     beta=0.70
     CG style diagonalization
     ethr =  6.48E-08,  avg # of iterations =  4.0

     total cpu time spent up to now is      218.0 secs

     total energy              =   -1445.15143795 Ry
     Harris-Foulkes estimate   =   -1445.15147740 Ry
     estimated scf accuracy    <       0.00011046 Ry

     iteration #  6     ecut=    50.00 Ry     beta=0.70
     CG style diagonalization
     ethr =  2.17E-08,  avg # of iterations =  4.3

     total cpu time spent up to now is      224.7 secs

     total energy              =   -1445.15146001 Ry
     Harris-Foulkes estimate   =   -1445.15146482 Ry
     estimated scf accuracy    <       0.00001582 Ry

     iteration #  7     ecut=    50.00 Ry     beta=0.70
     CG style diagonalization
     ethr =  3.10E-09,  avg # of iterations =  4.2

     total cpu time spent up to now is      231.2 secs

     total energy              =   -1445.15146238 Ry
     Harris-Foulkes estimate   =   -1445.15146316 Ry
     estimated scf accuracy    <       0.00000238 Ry

     iteration #  8     ecut=    50.00 Ry     beta=0.70
     CG style diagonalization
     c_bands:  1 eigenvalues not converged
     ethr =  4.67E-10,  avg # of iterations =  4.7

     total cpu time spent up to now is      238.5 secs

     total energy              =   -1445.15146307 Ry
     Harris-Foulkes estimate   =   -1445.15146319 Ry
     estimated scf accuracy    <       0.00000044 Ry

     iteration #  9     ecut=    50.00 Ry     beta=0.70
     CG style diagonalization
     ethr =  8.67E-11,  avg # of iterations =  3.7

     total cpu time spent up to now is      243.9 secs

     total energy              =   -1445.15146304 Ry
     Harris-Foulkes estimate   =   -1445.15146311 Ry
     estimated scf accuracy    <       0.00000015 Ry

     iteration # 10     ecut=    50.00 Ry     beta=0.70
     CG style diagonalization
     ethr =  3.01E-11,  avg # of iterations =  4.8

     total cpu time spent up to now is      251.3 secs

     total energy              =   -1445.15146308 Ry
     Harris-Foulkes estimate   =   -1445.15146311 Ry
     estimated scf accuracy    <       0.00000008 Ry

     iteration # 11     ecut=    50.00 Ry     beta=0.70
     CG style diagonalization
     ethr =  1.59E-11,  avg # of iterations =  4.0

     total cpu time spent up to now is      257.2 secs

     total energy              =   -1445.15146309 Ry
     Harris-Foulkes estimate   =   -1445.15146309 Ry
     estimated scf accuracy    <          3.8E-09 Ry

     iteration # 12     ecut=    50.00 Ry     beta=0.70
     CG style diagonalization
     c_bands:  4 eigenvalues not converged
     ethr =  7.51E-13,  avg # of iterations =  5.7

     total cpu time spent up to now is      266.3 secs

     total energy              =   -1445.15146309 Ry
     Harris-Foulkes estimate   =   -1445.15146309 Ry
     estimated scf accuracy    <          5.5E-09 Ry

     iteration # 13     ecut=    50.00 Ry     beta=0.70
     CG style diagonalization
     c_bands:  1 eigenvalues not converged
     ethr =  7.51E-13,  avg # of iterations =  3.8

     total cpu time spent up to now is      271.9 secs

     total energy              =   -1445.15146309 Ry
     Harris-Foulkes estimate   =   -1445.15146309 Ry
     estimated scf accuracy    <          3.8E-10 Ry

     iteration # 14     ecut=    50.00 Ry     beta=0.70
     CG style diagonalization
     c_bands:  4 eigenvalues not converged
     ethr =  1.00E-13,  avg # of iterations =  5.3

     total cpu time spent up to now is      280.1 secs

     total energy              =   -1445.15146309 Ry
     Harris-Foulkes estimate   =   -1445.15146309 Ry
     estimated scf accuracy    <          3.3E-10 Ry

     iteration # 15     ecut=    50.00 Ry     beta=0.70
     CG style diagonalization
     ethr =  1.00E-13,  avg # of iterations =  3.6

     total cpu time spent up to now is      285.4 secs

     End of self-consistent calculation

          k = 0.0000 0.0000 0.0000 ( 28763 PWs)   bands (ev):

    -7.9782  -6.3054  -6.2889  -6.2848  -6.2848  -6.2341  -6.2341  -6.2026
    -6.0582  -5.6811  -5.6811  -5.6493  -5.6493  -5.6408  -5.2231  -3.4629
    -3.4483  -3.4483  -3.4475  -3.4475  -3.4436  -3.4229  -3.4229  -3.3861
    -3.3861  -3.2814  -3.0996  -2.0579  -2.0579  -2.0488  -2.0446  -1.8863
    -1.8833  -1.8812  -1.8812  -1.8677  -1.8677  -1.8583  -1.8583  -1.8537
    -1.8509  -1.8509  -1.8405  -1.8368  -1.8368  -1.8331  -1.8143  -1.7802
    -1.7802  -1.7299  -1.7299  -1.7110  -1.7110  -1.1944  -0.3106   0.1781
     0.1932   0.1932   0.3138   0.9124   0.9124   0.9624   0.9624   0.9991
     1.1037   1.7196   1.7242   1.7242   1.7347   1.7347   1.7957   1.8086
     1.8086   1.8232   1.8232   2.0803   2.2457   2.8175   2.8231   2.8231
     2.8353   2.8353   2.8468   2.8488   2.8488   2.8627   2.8647   2.8811
     2.8811   2.9058   2.9290   2.9290   2.9770   2.9770   2.9778   2.9778
     3.0435   3.0997   3.0997   3.6683   4.0029   4.9970   4.9970   5.0032
     5.0386   5.0386   5.0589   5.0803   5.0803   5.1339   5.1339   5.2244
     5.2315   5.3100   5.3100   5.3107   5.3107   5.3387   5.3517   5.3625
     5.3625   5.4564   5.4564   5.5617   5.5672   6.0542   6.0723   6.0723
     6.0822   6.0822   6.1132   6.1132   6.1517   6.2047   6.2047   6.2151
     6.2732   6.9244   6.9244   6.9362   6.9389   6.9422   6.9512   6.9512
     6.9569   6.9753   6.9753   6.9990   6.9990   7.0268   7.0324   7.0324
     7.0573   7.0573   7.0721   7.1119   7.1119   7.1209   7.1305   7.1305
     7.1878   7.2504   7.2504   7.2555   7.2695   7.2695   7.3279   7.3637
     7.5210   7.5210   7.5345   7.5937   7.5937   7.9525   8.0326   8.7638
     8.7832   8.7832   8.8113   8.8125   8.8125   8.8299   8.8425   8.8425
     8.8450   8.9037   8.9164   8.9164   8.9178   8.9178   8.9301   8.9543
     8.9543   8.9864   9.0964   9.0964   9.1128   9.1128   9.2736   9.3444
     9.3444   9.4279   9.4279   9.4502   9.5785   9.5979   9.6527   9.6527
     9.7216   9.7260   9.7260   9.8461   9.8461   9.9604   9.9604  10.0699
    10.2252  10.7097  10.7383  10.7675  10.7675  10.8129  10.8129  10.8734
    10.8734  10.8923  10.9065  10.9280  10.9280  11.0088  11.0937  11.0937
    11.2051  11.2051  11.2993  11.2993  11.6804  11.9696  11.9997  11.9997
    12.0037  12.0153  12.0153  12.2106  12.2106  12.2538  12.2538  12.2600
    12.3521  12.3521  12.5861  12.5861  13.6304  13.9313  13.9313  15.0530
    18.4671  18.4684  18.4684  18.5148  18.5245  18.5245  18.7528  18.7528
    18.8264  18.8592  18.8592  18.8731  19.4409  19.7781  19.7781  20.0099
    20.0355  20.0355  20.0571  20.0571  20.0749  20.0876  20.0876  20.1165
    20.1218  20.1218  20.1251  20.1447  20.1447  20.1734  20.1943  20.2158
    20.2158  20.2567  20.2567  20.3907  20.3907  20.4113  20.4999  21.6814
    21.6814  21.7041  21.7041  21.7438

     highest occupied, lowest unoccupied level (ev):    13.9313   15.0530

!    total energy              =   -1445.15146309 Ry
     Harris-Foulkes estimate   =   -1445.15146309 Ry
     estimated scf accuracy    <          1.8E-11 Ry

     The total energy is the sum of the following terms:

     one-electron contribution =     529.57745560 Ry
     hartree contribution      =     123.09443405 Ry
     xc contribution           =    -456.85072307 Ry
     ewald contribution        =   -1640.97262967 Ry

     convergence has been achieved in  15 iterations

     Forces acting on atoms (cartesian axes, Ry/au):

     atom    1 type  2   force =     0.01630184   -0.01630170   -0.01630195
     atom    2 type  2   force =    -0.01641124    0.01641102    0.01641137
     atom    3 type  1   force =    -0.01391306    0.01391314   -0.00018209
     atom    4 type  1   force =     0.00144868   -0.00144869   -0.01358787
     atom    5 type  1   force =    -0.00735044    0.00735051    0.00837078
     atom    6 type  1   force =     0.00772910   -0.00772916   -0.00891941
     atom    7 type  1   force =    -0.00151260    0.00151260    0.01361544
     atom    8 type  1   force =     0.01387495   -0.01387496    0.00012462
     atom    9 type  1   force =     0.00018210    0.01391304    0.01391298
     atom   10 type  1   force =     0.01358786   -0.00144870   -0.00144872
     atom   11 type  1   force =    -0.00636557    0.00983583    0.00636560
     atom   12 type  1   force =     0.00670347   -0.00743846   -0.00670348
     atom   13 type  1   force =    -0.00553820    0.00866416    0.00751441
     atom   14 type  1   force =     0.00980080   -0.00906174   -0.00307035
     atom   15 type  1   force =     0.00057327    0.01500220    0.02216263
     atom   16 type  1   force =     0.02208208   -0.01502637    0.00066140
     atom   17 type  1   force =    -0.00837079    0.00735049    0.00735048
     atom   18 type  1   force =     0.00891939   -0.00772912   -0.00772913
     atom   19 type  1   force =    -0.00751439    0.00866413    0.00553818
     atom   20 type  1   force =     0.00307038   -0.00906180   -0.00980073
     atom   21 type  1   force =    -0.00594655    0.01015418    0.00594650
     atom   22 type  1   force =     0.00615909   -0.01053297   -0.00615912
     atom   23 type  1   force =    -0.00312130    0.00912623    0.00983487
     atom   24 type  1   force =     0.00745770   -0.00860833   -0.00551233
     atom   25 type  1   force =    -0.01361543    0.00151259    0.00151265
     atom   26 type  1   force =    -0.00012464   -0.01387489   -0.01387487
     atom   27 type  1   force =    -0.02216261    0.01500221   -0.00057323
     atom   28 type  1   force =    -0.00066145   -0.01502644   -0.02208208
     atom   29 type  1   force =    -0.00983488    0.00912623    0.00312131
     atom   30 type  1   force =     0.00551232   -0.00860836   -0.00745768
     atom   31 type  1   force =    -0.00676643    0.00745630    0.00676646
     atom   32 type  1   force =     0.00629449   -0.00983650   -0.00629455
     atom   33 type  1   force =    -0.01391298   -0.00018201    0.01391305
     atom   34 type  1   force =     0.00144868   -0.01358787   -0.00144868
     atom   35 type  1   force =    -0.00983586    0.00636559    0.00636557
     atom   36 type  1   force =     0.00743849   -0.00670348   -0.00670347
     atom   37 type  1   force =    -0.00866415    0.00553821    0.00751441
     atom   38 type  1   force =     0.00906172   -0.00980080   -0.00307034
     atom   39 type  1   force =    -0.01500215   -0.00057323    0.02216262
     atom   40 type  1   force =     0.01502635   -0.02208211    0.00066140
     atom   41 type  1   force =    -0.00636561    0.00636563    0.00983584
     atom   42 type  1   force =     0.00670350   -0.00670351   -0.00743848
     atom   43 type  1   force =    -0.00733788    0.00733783    0.00733784
     atom   44 type  1   force =     0.00637950   -0.00637948   -0.00637946
     atom   45 type  1   force =    -0.00668264    0.00668262    0.00761576
     atom   46 type  1   force =     0.00594885   -0.00594886   -0.00824652
     atom   47 type  1   force =    -0.01098316    0.01098316    0.00587795
     atom   48 type  1   force =     0.00636411   -0.00636416   -0.00670727
     atom   49 type  1   force =    -0.00751440    0.00553822    0.00866417
     atom   50 type  1   force =     0.00307038   -0.00980074   -0.00906177
     atom   51 type  1   force =    -0.00761583    0.00668260    0.00668259
     atom   52 type  1   force =     0.00824658   -0.00594888   -0.00594884
     atom   53 type  1   force =    -0.00549375    0.00700554    0.00549371
     atom   54 type  1   force =     0.00475279   -0.00504758   -0.00475282
     atom   55 type  1   force =    -0.00499798    0.00529936    0.00504854
     atom   56 type  1   force =     0.00497431   -0.00499398   -0.00524493
     atom   57 type  1   force =    -0.02216259   -0.00057323    0.01500219
     atom   58 type  1   force =    -0.00066148   -0.02208215   -0.01502643
     atom   59 type  1   force =    -0.00587791    0.01098315    0.01098311
     atom   60 type  1   force =     0.00670732   -0.00636420   -0.00636415
     atom   61 type  1   force =    -0.00504853    0.00529941    0.00499797
     atom   62 type  1   force =     0.00524492   -0.00499396   -0.00497434
     atom   63 type  1   force =    -0.00636435    0.00670323    0.00636438
     atom   64 type  1   force =     0.01099924   -0.00590768   -0.01099929
     atom   65 type  1   force =    -0.00735048    0.00837082    0.00735048
     atom   66 type  1   force =     0.00772913   -0.00891950   -0.00772912
     atom   67 type  1   force =    -0.00866412    0.00751445    0.00553821
     atom   68 type  1   force =     0.00906175   -0.00307036   -0.00980081
     atom   69 type  1   force =    -0.01015413    0.00594651    0.00594656
     atom   70 type  1   force =     0.01053295   -0.00615908   -0.00615917
     atom   71 type  1   force =    -0.00912619    0.00312132    0.00983493
     atom   72 type  1   force =     0.00860830   -0.00745770   -0.00551240
     atom   73 type  1   force =    -0.00553818    0.00751445    0.00866417
     atom   74 type  1   force =     0.00980079   -0.00307038   -0.00906173
     atom   75 type  1   force =    -0.00668261    0.00761575    0.00668262
     atom   76 type  1   force =     0.00594887   -0.00824652   -0.00594887
     atom   77 type  1   force =    -0.00700557    0.00549376    0.00549377
     atom   78 type  1   force =     0.00504753   -0.00475279   -0.00475280
     atom   79 type  1   force =    -0.00529936    0.00499800    0.00504855
     atom   80 type  1   force =     0.00499395   -0.00497435   -0.00524496
     atom   81 type  1   force =    -0.00594661    0.00594652    0.01015416
     atom   82 type  1   force =     0.00615917   -0.00615909   -0.01053296
     atom   83 type  1   force =    -0.00549376    0.00549373    0.00700558
     atom   84 type  1   force =     0.00475278   -0.00475278   -0.00504755
     atom   85 type  1   force =    -0.00443324    0.00443326    0.00443325
     atom   86 type  1   force =     0.00448860   -0.00448861   -0.00448860
     atom   87 type  1   force =    -0.00481055    0.00481054    0.00507323
     atom   88 type  1   force =     0.00543595   -0.00543591   -0.00698190
     atom   89 type  1   force =    -0.00983490    0.00312135    0.00912621
     atom   90 type  1   force =     0.00551232   -0.00745774   -0.00860836
     atom   91 type  1   force =    -0.00504856    0.00499801    0.00529939
     atom   92 type  1   force =     0.00524492   -0.00497438   -0.00499396
     atom   93 type  1   force =    -0.00507320    0.00481056    0.00481058
     atom   94 type  1   force =     0.00698184   -0.00543592   -0.00543597
     atom   95 type  1   force =    -0.00600818    0.00826849    0.00600823
     atom   96 type  1   force =     0.00661935   -0.00760114   -0.00661936
     atom   97 type  1   force =    -0.00151258    0.01361540    0.00151258
     atom   98 type  1   force =     0.01387489    0.00012463   -0.01387496
     atom   99 type  1   force =    -0.01500217    0.02216265   -0.00057320
     atom  100 type  1   force =     0.01502637    0.00066139   -0.02208206
     atom  101 type  1   force =    -0.00912624    0.00983492    0.00312131
     atom  102 type  1   force =     0.00860837   -0.00551238   -0.00745768
     atom  103 type  1   force =    -0.00745631    0.00676646    0.00676647
     atom  104 type  1   force =     0.00983649   -0.00629450   -0.00629454
     atom  105 type  1   force =     0.00057327    0.02216269    0.01500223
     atom  106 type  1   force =     0.02208212    0.00066140   -0.01502639
     atom  107 type  1   force =    -0.01098313    0.00587794    0.01098309
     atom  108 type  1   force =     0.00636418   -0.00670728   -0.00636416
     atom  109 type  1   force =    -0.00529940    0.00504854    0.00499797
     atom  110 type  1   force =     0.00499397   -0.00524495   -0.00497434
     atom  111 type  1   force =    -0.00670323    0.00636436    0.00636436
     atom  112 type  1   force =     0.00590765   -0.01099928   -0.01099928
     atom  113 type  1   force =    -0.00312134    0.00983487    0.00912621
     atom  114 type  1   force =     0.00745772   -0.00551235   -0.00860839
     atom  115 type  1   force =    -0.00499796    0.00504857    0.00529939
     atom  116 type  1   force =     0.00497433   -0.00524492   -0.00499395
     atom  117 type  1   force =    -0.00481057    0.00507324    0.00481057
     atom  118 type  1   force =     0.00543592   -0.00698188   -0.00543588
     atom  119 type  1   force =    -0.00826855    0.00600820    0.00600818
     atom  120 type  1   force =     0.00760118   -0.00661934   -0.00661932
     atom  121 type  1   force =    -0.00676648    0.00676649    0.00745631
     atom  122 type  1   force =     0.00629456   -0.00629454   -0.00983650
     atom  123 type  1   force =    -0.00636430    0.00636433    0.00670319
     atom  124 type  1   force =     0.01099930   -0.01099935   -0.00590766
     atom  125 type  1   force =    -0.00600819    0.00600822    0.00826850
     atom  126 type  1   force =     0.00661935   -0.00661933   -0.00760115
     atom  127 type  1   force =    -0.00636334    0.00636331    0.00636335
     atom  128 type  1   force =     0.00735209   -0.00735208   -0.00735210

     Total force =     0.169770     Total SCF correction =     0.000015


     Computing stress (Cartesian axis) and pressure

          total   stress  (Ry/bohr**3)                   (kbar)     P=   52.52
   0.00035704   0.00004108   0.00004108         52.52      6.04      6.04
   0.00004108   0.00035704  -0.00004108          6.04     52.52     -6.04
   0.00004108  -0.00004108   0.00035704          6.04     -6.04     52.52


     number of scf cycles    =   2
     number of bfgs steps    =   1

     enthalpy old            =   -1445.0841965552 Ry
     enthalpy new            =   -1445.1514630912 Ry

     CASE: enthalpy_new < enthalpy_old

     new trust radius        =       0.0846233980 bohr
     new conv_thr            =            2.2E-11 Ry

     new unit-cell volume =   4827.05694 a.u.^3 (   715.29603 Ang^3 )
     density =      3.56348 g/cm^3

CELL_PARAMETERS (alat= 26.81370204)
  -0.499497673  -0.001522943   0.499497673
   0.001522944   0.499497674   0.499497674
  -0.499497674   0.499497674  -0.001522944

ATOMIC_POSITIONS (crystal)
B       -0.006567328  -0.006567310  -0.006567304
B        0.069065321   0.069065316   0.069065312
C       -0.003639171  -0.003639171   0.254643409
C        0.063007837   0.063007837   0.313305751
C       -0.000383917  -0.000383920   0.499839789
C        0.062869344   0.062869344   0.562655409
C       -0.000505003  -0.000505004   0.749191732
C        0.066139485   0.066139486   0.807855023
C       -0.003639172   0.254643408  -0.003639171
C        0.063007834   0.313305755   0.063007835
C       -0.000120088   0.249696687   0.249696686
C        0.062629457   0.312645447   0.312645448
C       -0.000123058   0.249998153   0.499964531
C        0.062390731   0.313264565   0.562390757
C        0.000292808   0.250403359   0.748539635
C        0.062207449   0.313962056   0.812097710
C       -0.000383917   0.499839791  -0.000383921
C        0.062869343   0.562655406   0.062869346
C       -0.000123059   0.499964530   0.249998156
C        0.062390731   0.562390756   0.313264568
C        0.000013745   0.499861016   0.499861017
C        0.062487166   0.562629339   0.562629338
C        0.000111970   0.500112671   0.749231991
C        0.062625859   0.562538216   0.812498587
C       -0.000505001   0.749191729  -0.000505002
C        0.066139488   0.807855021   0.066139487
C        0.000292808   0.748539632   0.250403362
C        0.062207450   0.812097711   0.313962054
C        0.000111970   0.749231993   0.500112670
C        0.062625859   0.812498587   0.562538216
C       -0.000131537   0.749857194   0.749857194
C        0.062619070   0.812805406   0.812805406
C        0.254643402  -0.003639167  -0.003639172
C        0.313305753   0.063007837   0.063007837
C        0.249696688  -0.000120090   0.249696686
C        0.312645449   0.062629455   0.312645448
C        0.249998153  -0.000123057   0.499964530
C        0.313264566   0.062390729   0.562390758
C        0.250403359   0.000292807   0.748539634
C        0.313962054   0.062207449   0.812097711
C        0.249696688   0.249696688  -0.000120089
C        0.312645447   0.312645449   0.062629456
C        0.249913567   0.249913567   0.249913567
C        0.312616524   0.312616523   0.312616524
C        0.249913624   0.249913624   0.500049589
C        0.312527360   0.312527361   0.562606273
C        0.249722616   0.249722617   0.750392216
C        0.312523258   0.312523259   0.812424640
C        0.249998154   0.499964532  -0.000123059
C        0.313264564   0.562390759   0.062390730
C        0.249913625   0.500049588   0.249913627
C        0.312527361   0.562606273   0.312527360
C        0.249924899   0.499966443   0.499966443
C        0.312529228   0.562523100   0.562523102
C        0.249995208   0.499921247   0.749991447
C        0.312511290   0.562576178   0.812507537
C        0.250403360   0.748539635   0.000292806
C        0.313962054   0.812097713   0.062207448
C        0.249722616   0.750392216   0.249722615
C        0.312523260   0.812424637   0.312523259
C        0.249995208   0.749991446   0.499921249
C        0.312511290   0.812507537   0.562576179
C        0.250077257   0.749978430   0.749978430
C        0.312109684   0.812778541   0.812778542
C        0.499839788  -0.000383917  -0.000383919
C        0.562655409   0.062869344   0.062869345
C        0.499964531  -0.000123058   0.249998154
C        0.562390759   0.062390729   0.313264567
C        0.499861015   0.000013746   0.499861016
C        0.562629340   0.062487165   0.562629340
C        0.500112669   0.000111971   0.749231993
C        0.562538216   0.062625858   0.812498588
C        0.499964529   0.249998156  -0.000123060
C        0.562390758   0.313264564   0.062390729
C        0.500049590   0.249913624   0.249913624
C        0.562606275   0.312527360   0.312527360
C        0.499966444   0.249924900   0.499966443
C        0.562523101   0.312529229   0.562523101
C        0.499921246   0.249995210   0.749991445
C        0.562576178   0.312511291   0.812507535
C        0.499861017   0.499861014   0.000013745
C        0.562629340   0.562629340   0.062487165
C        0.499966444   0.499966443   0.249924899
C        0.562523102   0.562523101   0.312529228
C        0.499960305   0.499960305   0.499960304
C        0.562540159   0.562540158   0.562540159
C        0.499979671   0.499979671   0.749967599
C        0.562536278   0.562536279   0.812571970
C        0.500112669   0.749231994   0.000111970
C        0.562538216   0.812498587   0.062625859
C        0.499921248   0.749991445   0.249995210
C        0.562576180   0.812507536   0.312511290
C        0.499979671   0.749967600   0.499979671
C        0.562536278   0.812571970   0.562536277
C        0.499891650   0.749975297   0.749975296
C        0.562448425   0.812588927   0.812588928
C        0.749191729  -0.000505003  -0.000505004
C        0.807855022   0.066139484   0.066139489
C        0.748539634   0.000292807   0.250403361
C        0.812097711   0.062207450   0.313962055
C        0.749231993   0.000111971   0.500112670
C        0.812498589   0.062625857   0.562538217
C        0.749857193  -0.000131535   0.749857194
C        0.812805405   0.062619072   0.812805406
C        0.748539634   0.250403359   0.000292808
C        0.812097712   0.313962054   0.062207450
C        0.750392218   0.249722617   0.249722616
C        0.812424639   0.312523259   0.312523260
C        0.749991446   0.249995208   0.499921249
C        0.812507537   0.312511290   0.562576179
C        0.749978430   0.250077259   0.749978430
C        0.812778542   0.312109685   0.812778542
C        0.749231996   0.500112668   0.000111969
C        0.812498589   0.562538215   0.062625858
C        0.749991447   0.499921249   0.249995208
C        0.812507538   0.562576180   0.312511289
C        0.749967601   0.499979672   0.499979671
C        0.812571971   0.562536279   0.562536279
C        0.749975296   0.499891650   0.749975296
C        0.812588927   0.562448427   0.812588925
C        0.749857195   0.749857194  -0.000131537
C        0.812805404   0.812805405   0.062619070
C        0.749978431   0.749978431   0.250077255
C        0.812778542   0.812778541   0.312109685
C        0.749975296   0.749975296   0.499891650
C        0.812588927   0.812588927   0.562448425
C        0.749885010   0.749885011   0.749885010
C        0.812587853   0.812587853   0.812587852



     Writing output data file b.save
     NEW-OLD atomic charge density approx. for the potential
     extrapolated charge  519.02904, renormalised to  510.00000

     total cpu time spent up to now is      287.8 secs

     per-process dynamical memory:    64.9 Mb

     Self-consistent Calculation

     iteration #  1     ecut=    50.00 Ry     beta=0.70
     CG style diagonalization
     c_bands:  3 eigenvalues not converged
     ethr =  1.00E-06,  avg # of iterations = 17.7

     total cpu time spent up to now is      318.0 secs

     total energy              =   -1445.15094324 Ry
     Harris-Foulkes estimate   =   -1451.26349237 Ry
     estimated scf accuracy    <       0.01335215 Ry

     iteration #  2     ecut=    50.00 Ry     beta=0.70
     CG style diagonalization
     ethr =  2.62E-06,  avg # of iterations =  5.1

     total cpu time spent up to now is      326.1 secs

     total energy              =   -1445.17055109 Ry
     Harris-Foulkes estimate   =   -1445.17267073 Ry
     estimated scf accuracy    <       0.02130575 Ry

     iteration #  3     ecut=    50.00 Ry     beta=0.70
     CG style diagonalization
     ethr =  2.62E-06,  avg # of iterations =  3.0

     total cpu time spent up to now is      330.3 secs

     total energy              =   -1445.16668713 Ry
     Harris-Foulkes estimate   =   -1445.17080993 Ry
     estimated scf accuracy    <       0.01332689 Ry

     iteration #  4     ecut=    50.00 Ry     beta=0.70
     CG style diagonalization
     ethr =  2.61E-06,  avg # of iterations =  3.2

     total cpu time spent up to now is      334.9 secs

     total energy              =   -1445.16798967 Ry
     Harris-Foulkes estimate   =   -1445.16812530 Ry
     estimated scf accuracy    <       0.00068860 Ry

     iteration #  5     ecut=    50.00 Ry     beta=0.70
     CG style diagonalization
     c_bands:  3 eigenvalues not converged
     ethr =  1.35E-07,  avg # of iterations =  4.2

     total cpu time spent up to now is      341.4 secs

     total energy              =   -1445.16800161 Ry
     Harris-Foulkes estimate   =   -1445.16809748 Ry
     estimated scf accuracy    <       0.00029995 Ry

     iteration #  6     ecut=    50.00 Ry     beta=0.70
     CG style diagonalization
     c_bands:  3 eigenvalues not converged
     ethr =  5.88E-08,  avg # of iterations =  4.0

     total cpu time spent up to now is      347.5 secs

     total energy              =   -1445.16804642 Ry
     Harris-Foulkes estimate   =   -1445.16806015 Ry
     estimated scf accuracy    <       0.00002980 Ry

     iteration #  7     ecut=    50.00 Ry     beta=0.70
     CG style diagonalization
     c_bands:  2 eigenvalues not converged
     ethr =  5.84E-09,  avg # of iterations =  4.8

     total cpu time spent up to now is      355.1 secs

     total energy              =   -1445.16805669 Ry
     Harris-Foulkes estimate   =   -1445.16805751 Ry
     estimated scf accuracy    <       0.00000259 Ry

     iteration #  8     ecut=    50.00 Ry     beta=0.70
     CG style diagonalization
     c_bands:  5 eigenvalues not converged
     ethr =  5.08E-10,  avg # of iterations =  4.9

     total cpu time spent up to now is      362.7 secs

     total energy              =   -1445.16805718 Ry
     Harris-Foulkes estimate   =   -1445.16805763 Ry
     estimated scf accuracy    <       0.00000116 Ry

     iteration #  9     ecut=    50.00 Ry     beta=0.70
     CG style diagonalization
     c_bands:  1 eigenvalues not converged
     ethr =  2.28E-10,  avg # of iterations =  4.2

     total cpu time spent up to now is      369.0 secs

     total energy              =   -1445.16805735 Ry
     Harris-Foulkes estimate   =   -1445.16805744 Ry
     estimated scf accuracy    <       0.00000024 Ry

     iteration # 10     ecut=    50.00 Ry     beta=0.70
     CG style diagonalization
     c_bands:  5 eigenvalues not converged
     ethr =  4.72E-11,  avg # of iterations =  4.4

     total cpu time spent up to now is      375.6 secs

     total energy              =   -1445.16805739 Ry
     Harris-Foulkes estimate   =   -1445.16805740 Ry
     estimated scf accuracy    <       0.00000002 Ry

     iteration # 11     ecut=    50.00 Ry     beta=0.70
     CG style diagonalization
     c_bands:  5 eigenvalues not converged
     ethr =  3.89E-12,  avg # of iterations =  5.0

     total cpu time spent up to now is      383.3 secs

     total energy              =   -1445.16805740 Ry
     Harris-Foulkes estimate   =   -1445.16805740 Ry
     estimated scf accuracy    <          3.2E-09 Ry

     iteration # 12     ecut=    50.00 Ry     beta=0.70
     CG style diagonalization
     c_bands:  5 eigenvalues not converged
     ethr =  6.28E-13,  avg # of iterations =  4.2

     total cpu time spent up to now is      389.8 secs

     total energy              =   -1445.16805740 Ry
     Harris-Foulkes estimate   =   -1445.16805740 Ry
     estimated scf accuracy    <          6.8E-10 Ry

     iteration # 13     ecut=    50.00 Ry     beta=0.70
     CG style diagonalization
     c_bands:  5 eigenvalues not converged
     ethr =  1.34E-13,  avg # of iterations =  4.5

     total cpu time spent up to now is      396.7 secs

     total energy              =   -1445.16805740 Ry
     Harris-Foulkes estimate   =   -1445.16805740 Ry
     estimated scf accuracy    <          8.7E-11 Ry

     iteration # 14     ecut=    50.00 Ry     beta=0.70
     CG style diagonalization
     c_bands:  3 eigenvalues not converged
     ethr =  1.00E-13,  avg # of iterations =  3.4

     total cpu time spent up to now is      401.6 secs

     End of self-consistent calculation

          k = 0.0000 0.0000 0.0000 ( 28763 PWs)   bands (ev):

    -8.0592  -6.3980  -6.3939  -6.3939  -6.3861  -6.3421  -6.3421  -6.2997
    -6.1530  -5.7965  -5.7965  -5.7690  -5.7690  -5.7495  -5.3450  -3.6061
    -3.6015  -3.6015  -3.5967  -3.5873  -3.5873  -3.5609  -3.5609  -3.5279
    -3.5279  -3.4064  -3.2379  -2.2547  -2.2547  -2.2445  -2.1717  -2.0593
    -2.0476  -2.0476  -2.0441  -2.0370  -2.0370  -2.0313  -2.0206  -2.0206
    -2.0172  -2.0172  -2.0099  -2.0068  -1.9972  -1.9972  -1.9658  -1.9637
    -1.9637  -1.8964  -1.8964  -1.8881  -1.8881  -1.3677  -0.4933   0.0669
     0.0874   0.0874   0.1411   0.7401   0.7401   0.7411   0.7411   0.8262
     0.8852   1.4996   1.4996   1.5112   1.5112   1.5218   1.5274   1.5849
     1.5849   1.5935   1.5935   1.9013   2.0214   2.6283   2.6283   2.6362
     2.6407   2.6407   2.6618   2.6686   2.6837   2.6837   2.6913   2.6947
     2.6947   2.6951   2.7349   2.7349   2.7491   2.7491   2.7777   2.7777
     2.8206   2.8999   2.8999   3.4717   3.8129   4.7850   4.7850   4.8010
     4.8094   4.8094   4.8172   4.8391   4.8391   4.8804   4.8804   5.0788
     5.0939   5.1194   5.1357   5.1357   5.1464   5.1551   5.1551   5.1805
     5.1805   5.2840   5.2840   5.3519   5.3663   5.8442   5.8726   5.8726
     5.8840   5.8840   5.9082   5.9082   5.9603   6.0181   6.0184   6.0184
     6.0807   6.7124   6.7124   6.7166   6.7227   6.7260   6.7444   6.7444
     6.7512   6.7622   6.7622   6.7764   6.7800   6.7800   6.8082   6.8082
     6.8086   6.8086   6.8488   6.8618   6.8618   6.8811   6.8811   6.8917
     6.9320   6.9926   6.9926   7.0060   7.0416   7.0416   7.0818   7.1543
     7.2924   7.3077   7.3077   7.3959   7.3959   7.7380   7.7934   8.5450
     8.5517   8.5517   8.5757   8.5851   8.5851   8.6084   8.6180   8.6180
     8.6216   8.6523   8.6618   8.6618   8.6720   8.6720   8.6916   8.6973
     8.6973   8.7185   8.8602   8.8602   8.8692   8.8692   8.9758   9.0891
     9.0891   9.1325   9.1325   9.2393   9.3418   9.3628   9.3874   9.3874
     9.4419   9.4419   9.4864   9.5947   9.5947   9.7137   9.7137   9.7602
     9.9479  10.4703  10.4988  10.5214  10.5214  10.5473  10.5473  10.5804
    10.6091  10.6091  10.6355  10.6355  10.6907  10.7063  10.7987  10.7987
    10.9258  10.9258  11.0107  11.0107  11.3574  11.7453  11.7453  11.7589
    11.7706  11.7801  11.7801  11.8775  11.8775  11.8999  11.9011  11.9011
    12.0298  12.0298  12.2626  12.2626  13.2823  13.6486  13.6486  14.8346
    18.0913  18.1002  18.1002  18.1476  18.1663  18.1663  18.3736  18.3736
    18.4461  18.5154  18.5242  18.5242  19.2337  19.3294  19.3294  19.6399
    19.6466  19.6466  19.6520  19.6666  19.6666  19.7172  19.7172  19.7235
    19.7466  19.7466  19.7535  19.7829  19.7829  19.8055  19.8331  19.8472
    19.8472  19.8604  19.8604  19.9875  20.0475  20.0475  20.1086  21.4041
    21.4041  21.4340  21.4340  21.5014

     highest occupied, lowest unoccupied level (ev):    13.6486   14.8346

!    total energy              =   -1445.16805740 Ry
     Harris-Foulkes estimate   =   -1445.16805740 Ry
     estimated scf accuracy    <          2.1E-11 Ry

     The total energy is the sum of the following terms:

     one-electron contribution =     515.80526964 Ry
     hartree contribution      =     124.76337496 Ry
     xc contribution           =    -455.00115205 Ry
     ewald contribution        =   -1630.73554996 Ry

     convergence has been achieved in  14 iterations

     Forces acting on atoms (cartesian axes, Ry/au):

     atom    1 type  2   force =     0.00367418   -0.00367435   -0.00367431
     atom    2 type  2   force =    -0.00370617    0.00370636    0.00370620
     atom    3 type  1   force =    -0.00405222    0.00405223    0.00988703
     atom    4 type  1   force =     0.00089117   -0.00089119   -0.00833094
     atom    5 type  1   force =    -0.00512115    0.00512118    0.00193375
     atom    6 type  1   force =     0.00521964   -0.00521966   -0.00209882
     atom    7 type  1   force =    -0.00084811    0.00084813    0.00829990
     atom    8 type  1   force =     0.00405527   -0.00405527   -0.00983370
     atom    9 type  1   force =    -0.00988704    0.00405221    0.00405224
     atom   10 type  1   force =     0.00833087   -0.00089119   -0.00089117
     atom   11 type  1   force =    -0.00232942    0.00564105    0.00232943
     atom   12 type  1   force =     0.00185603   -0.00136112   -0.00185604
     atom   13 type  1   force =    -0.00035724    0.00158322    0.00188572
     atom   14 type  1   force =     0.00436951   -0.00288369    0.00185446
     atom   15 type  1   force =     0.00250234    0.00551833    0.00964998
     atom   16 type  1   force =     0.00963118   -0.00549962    0.00251434
     atom   17 type  1   force =    -0.00193374    0.00512117    0.00512114
     atom   18 type  1   force =     0.00209880   -0.00521964   -0.00521961
     atom   19 type  1   force =    -0.00188571    0.00158321    0.00035727
     atom   20 type  1   force =    -0.00185444   -0.00288370   -0.00436952
[...]

     total energy              =   -1445.15675121 Ry
     Harris-Foulkes estimate   =   -1445.15675160 Ry
     estimated scf accuracy    <       0.00000155 Ry

     iteration # 10     ecut=    50.00 Ry     beta=0.70
     CG style diagonalization
     c_bands:  5 eigenvalues not converged
     ethr =  3.03E-10,  avg # of iterations =  3.7

     total cpu time spent up to now is     1026.7 secs

     total energy              =   -1445.15675100 Ry
     Harris-Foulkes estimate   =   -1445.15675131 Ry
     estimated scf accuracy    <       0.00000063 Ry

     iteration # 11     ecut=    50.00 Ry     beta=0.70
     CG style diagonalization
     c_bands:  4 eigenvalues not converged
     ethr =  1.23E-10,  avg # of iterations =  4.8

     total cpu time spent up to now is     1034.3 secs

     total energy              =   -1445.15675120 Ry
     Harris-Foulkes estimate   =   -1445.15675123 Ry
     estimated scf accuracy    <       0.00000007 Ry

     iteration # 12     ecut=    50.00 Ry     beta=0.70
     CG style diagonalization
     c_bands:  4 eigenvalues not converged
     ethr =  1.47E-11,  avg # of iterations =  4.4

     total cpu time spent up to now is     1041.1 secs

     total energy              =   -1445.15675121 Ry
     Harris-Foulkes estimate   =   -1445.15675121 Ry
     estimated scf accuracy    <          8.9E-09 Ry

     iteration # 13     ecut=    50.00 Ry     beta=0.70
     CG style diagonalization
     c_bands:  5 eigenvalues not converged
     ethr =  1.75E-12,  avg # of iterations =  4.7

     total cpu time spent up to now is     1048.6 secs

     total energy              =   -1445.15675121 Ry
     Harris-Foulkes estimate   =   -1445.15675121 Ry
     estimated scf accuracy    <          1.7E-09 Ry

     iteration # 14     ecut=    50.00 Ry     beta=0.70
     CG style diagonalization
     c_bands:  4 eigenvalues not converged
     ethr =  3.28E-13,  avg # of iterations =  4.1

     total cpu time spent up to now is     1054.9 secs

     total energy              =   -1445.15675121 Ry
     Harris-Foulkes estimate   =   -1445.15675121 Ry
     estimated scf accuracy    <          6.1E-10 Ry

     iteration # 15     ecut=    50.00 Ry     beta=0.70
     CG style diagonalization
     c_bands:  5 eigenvalues not converged
     ethr =  1.20E-13,  avg # of iterations =  4.9

     total cpu time spent up to now is     1062.5 secs

     total energy              =   -1445.15675121 Ry
     Harris-Foulkes estimate   =   -1445.15675121 Ry
     estimated scf accuracy    <          3.3E-10 Ry

     iteration # 16     ecut=    50.00 Ry     beta=0.70
     CG style diagonalization
     c_bands:  3 eigenvalues not converged
     ethr =  1.00E-13,  avg # of iterations =  4.1

     total cpu time spent up to now is     1068.7 secs

     total energy              =   -1445.15675121 Ry
     Harris-Foulkes estimate   =   -1445.15675121 Ry
     estimated scf accuracy    <          5.0E-11 Ry

     iteration # 17     ecut=    50.00 Ry     beta=0.70
     CG style diagonalization
     c_bands:  3 eigenvalues not converged
     ethr =  1.00E-13,  avg # of iterations =  3.3

     total cpu time spent up to now is     1073.5 secs

     total energy              =   -1445.15675121 Ry
     Harris-Foulkes estimate   =   -1445.15675121 Ry
     estimated scf accuracy    <          5.7E-12 Ry

     iteration # 18     ecut=    50.00 Ry     beta=0.70
     CG style diagonalization
     c_bands:  3 eigenvalues not converged
     ethr =  1.00E-13,  avg # of iterations =  3.2

     total cpu time spent up to now is     1078.1 secs

     total energy              =   -1445.15675121 Ry
     Harris-Foulkes estimate   =   -1445.15675121 Ry
     estimated scf accuracy    <          2.1E-12 Ry

     iteration # 19     ecut=    50.00 Ry     beta=0.70
     CG style diagonalization
     c_bands:  3 eigenvalues not converged
     ethr =  1.00E-13,  avg # of iterations =  3.2

     total cpu time spent up to now is     1082.7 secs

     End of self-consistent calculation

          k = 0.0000 0.0000 0.0000 ( 28631 PWs)   bands (ev):

    -8.0271  -6.3634  -6.3560  -6.3560  -6.3535  -6.2925  -6.2925  -6.2587
    -6.1077  -5.7549  -5.7549  -5.7191  -5.7191  -5.6988  -5.2784  -3.5402
    -3.5377  -3.5377  -3.5346  -3.5346  -3.5295  -3.5076  -3.5076  -3.4630
    -3.4630  -3.3614  -3.1712  -2.1679  -2.1679  -2.1632  -2.1267  -1.9945
    -1.9828  -1.9828  -1.9759  -1.9759  -1.9728  -1.9566  -1.9550  -1.9550
    -1.9511  -1.9511  -1.9399  -1.9310  -1.9310  -1.9248  -1.9181  -1.8827
    -1.8827  -1.8219  -1.8219  -1.7962  -1.7962  -1.2915  -0.4108   0.1269
     0.1459   0.1459   0.1931   0.8242   0.8242   0.8244   0.8244   0.8935
     0.9818   1.5998   1.5998   1.6074   1.6078   1.6078   1.6341   1.6797
     1.6797   1.6815   1.6815   1.9749   2.1199   2.7139   2.7139   2.7144
     2.7300   2.7300   2.7565   2.7565   2.7610   2.7616   2.7668   2.7668
     2.7675   2.7692   2.8161   2.8161   2.8188   2.8188   2.8582   2.8582
     2.8887   2.9930   2.9930   3.5483   3.9158   4.8832   4.8832   4.9061
     4.9064   4.9064   4.9064   4.9387   4.9387   4.9683   4.9683   5.1542
     5.1795   5.2014   5.2034   5.2051   5.2051   5.2222   5.2222   5.2555
     5.2555   5.3559   5.3559   5.4504   5.4551   5.9335   5.9557   5.9557
     5.9671   5.9671   5.9864   5.9864   6.0350   6.0901   6.1094   6.1094
     6.1796   6.8032   6.8156   6.8156   6.8207   6.8249   6.8327   6.8327
     6.8429   6.8493   6.8493   6.8611   6.8731   6.8731   6.8988   6.8988
     6.9084   6.9084   6.9458   6.9792   6.9792   6.9945   6.9945   7.0119
     7.0235   7.0764   7.0873   7.0873   7.1456   7.1502   7.1502   7.2726
     7.3742   7.3742   7.3835   7.5120   7.5120   7.8466   7.8939   8.6622
     8.6622   8.6627   8.6980   8.7019   8.7019   8.7148   8.7246   8.7246
     8.7401   8.7461   8.7461   8.7469   8.7469   8.7603   8.7682   8.7863
     8.7863   8.7963   8.9471   8.9471   8.9897   8.9897   9.0714   9.2196
     9.2196   9.2523   9.2523   9.3487   9.4716   9.4946   9.5040   9.5040
     9.5275   9.5275   9.5753   9.6877   9.6877   9.8352   9.8352   9.8616
    10.0521  10.6049  10.6311  10.6395  10.6395  10.6711  10.6711  10.6777
    10.7037  10.7037  10.7421  10.7421  10.7737  10.8503  10.9091  10.9091
    11.0680  11.0680  11.1223  11.1223  11.4643  11.8871  11.8871  11.9053
    11.9083  11.9232  11.9232  11.9846  11.9846  12.0032  12.0105  12.0105
    12.1637  12.1637  12.3737  12.3737  13.4047  13.8025  13.8025  14.9673
    18.2419  18.2546  18.2546  18.3108  18.3169  18.3169  18.5623  18.5623
    18.6263  18.6427  18.6427  18.6456  19.3841  19.4923  19.4923  19.8094
    19.8255  19.8307  19.8307  19.8520  19.8520  19.8736  19.8736  19.9005
    19.9073  19.9073  19.9114  19.9114  19.9193  19.9396  19.9466  19.9837
    19.9837  20.0586  20.0586  20.1363  20.2034  20.2034  20.3005  21.5782
    21.5782  21.6140  21.6140  21.6611

     highest occupied, lowest unoccupied level (ev):    13.8025   14.9673

!    total energy              =   -1445.15675121 Ry
     Harris-Foulkes estimate   =   -1445.15675121 Ry
     estimated scf accuracy    <          4.3E-13 Ry

     The total energy is the sum of the following terms:

     one-electron contribution =     520.47609094 Ry
     hartree contribution      =     124.64294175 Ry
     xc contribution           =    -455.80163261 Ry
     ewald contribution        =   -1634.47415129 Ry

     convergence has been achieved in  19 iterations

     Forces acting on atoms (cartesian axes, Ry/au):

     atom    1 type  2   force =     0.00002648   -0.00002652   -0.00002642
     atom    2 type  2   force =    -0.00003571    0.00003562    0.00003555
     atom    3 type  1   force =     0.00000009   -0.00000009   -0.00005751
     atom    4 type  1   force =     0.00004576   -0.00004575   -0.00007798
     atom    5 type  1   force =     0.00002249   -0.00002249   -0.00001883
     atom    6 type  1   force =    -0.00003853    0.00003854   -0.00000130
     atom    7 type  1   force =    -0.00005624    0.00005624    0.00007173
     atom    8 type  1   force =    -0.00000782    0.00000781    0.00005570
     atom    9 type  1   force =     0.00005753   -0.00000007   -0.00000008
     atom   10 type  1   force =     0.00007798   -0.00004575   -0.00004575
     atom   11 type  1   force =     0.00006282   -0.00002654   -0.00006282
     atom   12 type  1   force =     0.00015106   -0.00011618   -0.00015105
     atom   13 type  1   force =    -0.00000564   -0.00003469    0.00003166
     atom   14 type  1   force =     0.00003700   -0.00010440   -0.00010023
     atom   15 type  1   force =    -0.00004561    0.00003018    0.00001261
     atom   16 type  1   force =     0.00001155   -0.00002918   -0.00004146
     atom   17 type  1   force =     0.00001883   -0.00002249   -0.00002249
     atom   18 type  1   force =     0.00000131    0.00003853    0.00003853
     atom   19 type  1   force =    -0.00003167   -0.00003470    0.00000565
     atom   20 type  1   force =     0.00010022   -0.00010440   -0.00003700
     atom   21 type  1   force =    -0.00004681    0.00004164    0.00004681
     atom   22 type  1   force =     0.00004863   -0.00005180   -0.00004862
     atom   23 type  1   force =    -0.00009479    0.00010122    0.00003524
     atom   24 type  1   force =     0.00003785    0.00004001   -0.00000058
     atom   25 type  1   force =    -0.00007174    0.00005625    0.00005624
     atom   26 type  1   force =    -0.00005567    0.00000781    0.00000784
     atom   27 type  1   force =    -0.00001262    0.00003018    0.00004560
     atom   28 type  1   force =     0.00004147   -0.00002919   -0.00001154
     atom   29 type  1   force =    -0.00003524    0.00010122    0.00009479
     atom   30 type  1   force =     0.00000058    0.00004000   -0.00003785
     atom   31 type  1   force =    -0.00014153    0.00011744    0.00014153
     atom   32 type  1   force =    -0.00005838    0.00003024    0.00005838
     atom   33 type  1   force =     0.00000007   -0.00005753   -0.00000007
     atom   34 type  1   force =     0.00004575   -0.00007797   -0.00004575
     atom   35 type  1   force =     0.00002654   -0.00006282   -0.00006282
     atom   36 type  1   force =     0.00011618   -0.00015105   -0.00015105
     atom   37 type  1   force =     0.00003469    0.00000564    0.00003166
     atom   38 type  1   force =     0.00010439   -0.00003699   -0.00010023
     atom   39 type  1   force =    -0.00003018    0.00004560    0.00001262
     atom   40 type  1   force =     0.00002919   -0.00001154   -0.00004146
     atom   41 type  1   force =     0.00006282   -0.00006282   -0.00002654
     atom   42 type  1   force =     0.00015106   -0.00015105   -0.00011617
     atom   43 type  1   force =     0.00014896   -0.00014896   -0.00014896
     atom   44 type  1   force =     0.00018926   -0.00018926   -0.00018926
     atom   45 type  1   force =    -0.00002914    0.00002914    0.00008295
     atom   46 type  1   force =     0.00013548   -0.00013547   -0.00001008
     atom   47 type  1   force =    -0.00001052    0.00001051    0.00007918
     atom   48 type  1   force =     0.00014434   -0.00014433    0.00003799
     atom   49 type  1   force =    -0.00003167    0.00000564   -0.00003469
     atom   50 type  1   force =     0.00010022   -0.00003700   -0.00010439
     atom   51 type  1   force =    -0.00008295    0.00002913    0.00002914
     atom   52 type  1   force =     0.00001009   -0.00013548   -0.00013548
     atom   53 type  1   force =    -0.00013678    0.00016248    0.00013677
     atom   54 type  1   force =     0.00004634   -0.00005473   -0.00004634
     atom   55 type  1   force =    -0.00008535    0.00007487    0.00008628
     atom   56 type  1   force =     0.00009304   -0.00008284   -0.00007522
     atom   57 type  1   force =    -0.00001263    0.00004560    0.00003015
     atom   58 type  1   force =     0.00004147   -0.00001155   -0.00002918
     atom   59 type  1   force =    -0.00007918    0.00001052    0.00001052
     atom   60 type  1   force =    -0.00003799   -0.00014433   -0.00014434
     atom   61 type  1   force =    -0.00008628    0.00007487    0.00008535
     atom   62 type  1   force =     0.00007522   -0.00008284   -0.00009305
     atom   63 type  1   force =    -0.00014442   -0.00003525    0.00014442
     atom   64 type  1   force =     0.00001275   -0.00007955   -0.00001274
     atom   65 type  1   force =     0.00002249   -0.00001883   -0.00002249
     atom   66 type  1   force =    -0.00003852   -0.00000130    0.00003852
     atom   67 type  1   force =     0.00003469    0.00003167    0.00000565
     atom   68 type  1   force =     0.00010439   -0.00010021   -0.00003701
     atom   69 type  1   force =    -0.00004163    0.00004681    0.00004681
     atom   70 type  1   force =     0.00005179   -0.00004863   -0.00004862
     atom   71 type  1   force =    -0.00010122    0.00009478    0.00003523
     atom   72 type  1   force =    -0.00004000   -0.00003785   -0.00000058
     atom   73 type  1   force =    -0.00000564    0.00003167   -0.00003469
     atom   74 type  1   force =     0.00003701   -0.00010021   -0.00010438
     atom   75 type  1   force =    -0.00002913    0.00008295    0.00002914
     atom   76 type  1   force =     0.00013548   -0.00001009   -0.00013548
     atom   77 type  1   force =    -0.00016247    0.00013677    0.00013677
     atom   78 type  1   force =     0.00005473   -0.00004635   -0.00004635
     atom   79 type  1   force =    -0.00007488    0.00008535    0.00008628
     atom   80 type  1   force =     0.00008284   -0.00009304   -0.00007522
     atom   81 type  1   force =    -0.00004681    0.00004681    0.00004164
     atom   82 type  1   force =     0.00004863   -0.00004862   -0.00005181
     atom   83 type  1   force =    -0.00013676    0.00013676    0.00016249
     atom   84 type  1   force =     0.00004635   -0.00004635   -0.00005473
     atom   85 type  1   force =    -0.00012480    0.00012480    0.00012481
     atom   86 type  1   force =     0.00012165   -0.00012165   -0.00012166
     atom   87 type  1   force =    -0.00005270    0.00005270    0.00005710
     atom   88 type  1   force =     0.00013439   -0.00013438   -0.00016283
     atom   89 type  1   force =    -0.00003524    0.00009479    0.00010122
     atom   90 type  1   force =     0.00000057   -0.00003785    0.00004000
     atom   91 type  1   force =    -0.00008628    0.00008535    0.00007488
     atom   92 type  1   force =     0.00007522   -0.00009304   -0.00008284
     atom   93 type  1   force =    -0.00005709    0.00005270    0.00005270
     atom   94 type  1   force =     0.00016281   -0.00013439   -0.00013439
     atom   95 type  1   force =    -0.00013372    0.00001358    0.00013371
     atom   96 type  1   force =     0.00003332   -0.00008500   -0.00003332
     atom   97 type  1   force =    -0.00005625    0.00007174    0.00005624
     atom   98 type  1   force =    -0.00000785    0.00005562    0.00000786
     atom   99 type  1   force =    -0.00003016    0.00001264    0.00004559
     atom  100 type  1   force =     0.00002920   -0.00004146   -0.00001154
     atom  101 type  1   force =    -0.00010122    0.00003523    0.00009479
     atom  102 type  1   force =    -0.00003999   -0.00000058   -0.00003785
     atom  103 type  1   force =    -0.00011744    0.00014153    0.00014153
     atom  104 type  1   force =    -0.00003023    0.00005839    0.00005838
     atom  105 type  1   force =    -0.00004559    0.00001265    0.00003015
     atom  106 type  1   force =     0.00001155   -0.00004146   -0.00002918
     atom  107 type  1   force =    -0.00001052    0.00007919    0.00001052
     atom  108 type  1   force =     0.00014434    0.00003799   -0.00014434
     atom  109 type  1   force =    -0.00007487    0.00008628    0.00008536
     atom  110 type  1   force =     0.00008284   -0.00007521   -0.00009304
     atom  111 type  1   force =     0.00003526    0.00014441    0.00014442
     atom  112 type  1   force =     0.00007956   -0.00001274   -0.00001274
     atom  113 type  1   force =    -0.00009478    0.00003524    0.00010122
     atom  114 type  1   force =     0.00003785   -0.00000057    0.00004000
     atom  115 type  1   force =    -0.00008535    0.00008628    0.00007488
     atom  116 type  1   force =     0.00009305   -0.00007521   -0.00008284
     atom  117 type  1   force =    -0.00005270    0.00005709    0.00005270
     atom  118 type  1   force =     0.00013440   -0.00016282   -0.00013439
     atom  119 type  1   force =    -0.00001357    0.00013372    0.00013372
     atom  120 type  1   force =     0.00008500   -0.00003331   -0.00003332
     atom  121 type  1   force =    -0.00014154    0.00014153    0.00011743
     atom  122 type  1   force =    -0.00005838    0.00005838    0.00003024
     atom  123 type  1   force =    -0.00014442    0.00014442   -0.00003526
     atom  124 type  1   force =     0.00001274   -0.00001273   -0.00007955
     atom  125 type  1   force =    -0.00013372    0.00013371    0.00001356
     atom  126 type  1   force =     0.00003332   -0.00003332   -0.00008500
     atom  127 type  1   force =    -0.00018294    0.00018294    0.00018294
     atom  128 type  1   force =    -0.00014145    0.00014146    0.00014145

     Total force =     0.001590     Total SCF correction =     0.000002


     Computing stress (Cartesian axis) and pressure

          total   stress  (Ry/bohr**3)                   (kbar)     P=   -1.83
  -0.00001244   0.00000473   0.00000473         -1.83      0.70      0.70
   0.00000473  -0.00001244  -0.00000473          0.70     -1.83     -0.70
   0.00000473  -0.00000473  -0.00001244          0.70     -0.70     -1.83


     Writing output data file b.save
 
     init_run     :      1.47s CPU      2.53s WALL (       2 calls)
     electrons    :   1041.90s CPU   1061.65s WALL (       9 calls)
     update_pot   :      0.97s CPU      1.41s WALL (       7 calls)
     forces       :      2.54s CPU      2.86s WALL (       9 calls)
     stress       :     11.69s CPU     12.00s WALL (       9 calls)

     Called by init_run:
     wfcinit      :      0.95s CPU      1.44s WALL (       2 calls)
     potinit      :      0.11s CPU      0.14s WALL (       2 calls)

     Called by electrons:
     c_bands      :   1018.93s CPU   1037.57s WALL (     135 calls)
     sum_band     :     19.31s CPU     19.63s WALL (     135 calls)
     v_of_rho     :      1.36s CPU      1.40s WALL (     140 calls)
     mix_rho      :      1.88s CPU      1.93s WALL (     135 calls)

     Called by c_bands:
     init_us_2    :      0.62s CPU      0.66s WALL (     272 calls)
     ccgdiagg     :    958.90s CPU    975.29s WALL (     144 calls)
     wfcrot       :     60.44s CPU     62.34s WALL (     133 calls)

     Called by sum_band:

     Called by *cgdiagg:
     h_psi        :    656.80s CPU    668.44s WALL (  163377 calls)
     cdiaghg      :      6.89s CPU      7.47s WALL (     133 calls)

     Called by h_psi:
     h_psi:pot    :    655.85s CPU    667.47s WALL (  163377 calls)
     h_psi:calbec :    247.43s CPU    251.64s WALL (  163377 calls)
     vloc_psi     :    220.15s CPU    224.51s WALL (  163377 calls)
     add_vuspsi   :    186.90s CPU    190.29s WALL (  163377 calls)
     h_1psi       :    611.04s CPU    621.35s WALL (  163244 calls)

     General routines
     calbec       :    463.00s CPU    471.63s WALL (  326666 calls)
     fft          :      1.56s CPU      2.05s WALL (    1618 calls)
     ffts         :      1.14s CPU      1.15s WALL (    1894 calls)
     fftw         :    222.52s CPU    226.92s WALL (  446788 calls)
 
     Parallel routines
     fft_scatter  :    159.19s CPU    162.53s WALL (  450300 calls)
 
     PWSCF        : 17m40.89s CPU    18m 6.41s WALL

 
   This run was terminated on:  17:39:39  20Jan2021            

=------------------------------------------------------------------------------=
   JOB DONE.
=------------------------------------------------------------------------------=
