
     Program PWSCF v.6.1 (svn rev. 13369) starts on 20Jan2021 at 11:23:47 

     This program is part of the open-source Quantum ESPRESSO suite
     for quantum simulation of materials; please cite
         "P. Giannozzi et al., J. Phys.:Condens. Matter 21 395502 (2009);
          URL http://www.quantum-espresso.org", 
     in publications or presentations arising from this work. More details at
     http://www.quantum-espresso.org/quote

     Parallel version (MPI & OpenMP), running on      40 processor cores
     Number of MPI processes:                40
     Threads/MPI process:                     1
     R & G space division:  proc/nbgrp/npool/nimage =      40
     Waiting for input...
     Reading input from standard input

     Current dimensions of program PWSCF are:
     Max number of different atomic species (ntypx) = 10
     Max number of k-points (npk) =  40000
     Max angular momentum in pseudopotentials (lmaxx) =  3

     Atomic positions and unit cell read from directory:
     ./c.save/
 

     IMPORTANT: XC functional enforced from input :
     Exchange-correlation      = PZ ( 1  1  0  0 0 0)
     Any further DFT definition will be discarded
     Please, verify this is what you really want

               file C.pz-mt.fhi.UPF: wavefunction(s)  3d renormalized

     Subspace diagonalization in iterative solution of the eigenvalue problem:
     one sub-group per band group will be used
     scalapack distributed-memory algorithm (size of sub-group:  4*  4 procs)

 
     Parallelization info
     --------------------
     sticks:   dense  smooth     PW     G-vecs:    dense   smooth      PW
     Min          15      15      4                  251      251      43
     Max          16      16      5                  253      253      47
     Sum         613     613    199                10081    10081    1807
 


     bravais-lattice index     =            2
     lattice parameter (alat)  =       6.7034  a.u.
     unit-cell volume          =      75.3061 (a.u.)^3
     number of atoms/cell      =            2
     number of atomic types    =            1
     number of electrons       =         8.00
     number of Kohn-Sham states=            8
     kinetic-energy cutoff     =     100.0000  Ry
     charge density cutoff     =     400.0000  Ry
     Exchange-correlation      = PZ ( 1  1  0  0 0 0)

     celldm(1)=   6.703426  celldm(2)=   0.000000  celldm(3)=   0.000000
     celldm(4)=   0.000000  celldm(5)=   0.000000  celldm(6)=   0.000000

     crystal axes: (cart. coord. in units of alat)
               a(1) = (  -0.500000   0.000000   0.500000 )  
               a(2) = (   0.000000   0.500000   0.500000 )  
               a(3) = (  -0.500000   0.500000   0.000000 )  

     reciprocal axes: (cart. coord. in units 2 pi/alat)
               b(1) = ( -1.000000 -1.000000  1.000000 )  
               b(2) = (  1.000000  1.000000  1.000000 )  
               b(3) = ( -1.000000  1.000000 -1.000000 )  


     PseudoPot. # 1 for  C read from file:
     ../C.pz-mt.fhi.UPF
     MD5 check sum: b7c38bc33a0cf75f44be89b84470f298
     Pseudo is Norm-conserving, Zval =  4.0
     Generated using FHI98PP, converted with fhi2upf.x v.5.0.2
     Using radial grid of  461 points,  2 beta functions with: 
                l(1) =   0
                l(2) =   1

     atomic species   valence    mass     pseudopotential
        C              4.00    12.01100      C( 1.00)

     No symmetry found



   Cartesian axes

     site n.     atom                  positions (alat units)
         1           C   tau(   1) = (   0.0000000   0.0000000   0.0000000  )
         2           C   tau(   2) = (  -0.2500000   0.2500000   0.2500000  )

     number of k points=    64
                       cart. coord. in units 2pi/alat
        k(    1) = (   0.0000000   0.0000000   0.0000000), wk =   0.0312500
        k(    2) = (  -0.2500000   0.2500000  -0.2500000), wk =   0.0312500
        k(    3) = (   0.5000000  -0.5000000   0.5000000), wk =   0.0312500
        k(    4) = (   0.2500000  -0.2500000   0.2500000), wk =   0.0312500
        k(    5) = (   0.2500000   0.2500000   0.2500000), wk =   0.0312500
        k(    6) = (   0.0000000   0.5000000   0.0000000), wk =   0.0312500
        k(    7) = (   0.7500000  -0.2500000   0.7500000), wk =   0.0312500
        k(    8) = (   0.5000000   0.0000000   0.5000000), wk =   0.0312500
        k(    9) = (  -0.5000000  -0.5000000  -0.5000000), wk =   0.0312500
        k(   10) = (  -0.7500000  -0.2500000  -0.7500000), wk =   0.0312500
        k(   11) = (   0.0000000  -1.0000000   0.0000000), wk =   0.0312500
        k(   12) = (  -0.2500000  -0.7500000  -0.2500000), wk =   0.0312500
        k(   13) = (  -0.2500000  -0.2500000  -0.2500000), wk =   0.0312500
        k(   14) = (  -0.5000000   0.0000000  -0.5000000), wk =   0.0312500
        k(   15) = (   0.2500000  -0.7500000   0.2500000), wk =   0.0312500
        k(   16) = (   0.0000000  -0.5000000   0.0000000), wk =   0.0312500
        k(   17) = (  -0.2500000  -0.2500000   0.2500000), wk =   0.0312500
        k(   18) = (  -0.5000000   0.0000000   0.0000000), wk =   0.0312500
        k(   19) = (   0.2500000  -0.7500000   0.7500000), wk =   0.0312500
        k(   20) = (   0.0000000  -0.5000000   0.5000000), wk =   0.0312500
        k(   21) = (   0.0000000   0.0000000   0.5000000), wk =   0.0312500
        k(   22) = (  -0.2500000   0.2500000   0.2500000), wk =   0.0312500
        k(   23) = (   0.5000000  -0.5000000   1.0000000), wk =   0.0312500
        k(   24) = (   0.2500000  -0.2500000   0.7500000), wk =   0.0312500
        k(   25) = (  -0.7500000  -0.7500000  -0.2500000), wk =   0.0312500
        k(   26) = (  -1.0000000  -0.5000000  -0.5000000), wk =   0.0312500
        k(   27) = (  -0.2500000  -1.2500000   0.2500000), wk =   0.0312500
        k(   28) = (  -0.5000000  -1.0000000   0.0000000), wk =   0.0312500
        k(   29) = (  -0.5000000  -0.5000000   0.0000000), wk =   0.0312500
        k(   30) = (  -0.7500000  -0.2500000  -0.2500000), wk =   0.0312500
        k(   31) = (   0.0000000  -1.0000000   0.5000000), wk =   0.0312500
        k(   32) = (  -0.2500000  -0.7500000   0.2500000), wk =   0.0312500
        k(   33) = (   0.5000000   0.5000000  -0.5000000), wk =   0.0312500
        k(   34) = (   0.2500000   0.7500000  -0.7500000), wk =   0.0312500
        k(   35) = (   1.0000000   0.0000000   0.0000000), wk =   0.0312500
        k(   36) = (   0.7500000   0.2500000  -0.2500000), wk =   0.0312500
        k(   37) = (   0.7500000   0.7500000  -0.2500000), wk =   0.0312500
        k(   38) = (   0.5000000   1.0000000  -0.5000000), wk =   0.0312500
        k(   39) = (   1.2500000   0.2500000   0.2500000), wk =   0.0312500
        k(   40) = (   1.0000000   0.5000000   0.0000000), wk =   0.0312500
        k(   41) = (   0.0000000   0.0000000  -1.0000000), wk =   0.0312500
        k(   42) = (  -0.2500000   0.2500000  -1.2500000), wk =   0.0312500
        k(   43) = (   0.5000000  -0.5000000  -0.5000000), wk =   0.0312500
        k(   44) = (   0.2500000  -0.2500000  -0.7500000), wk =   0.0312500
        k(   45) = (   0.2500000   0.2500000  -0.7500000), wk =   0.0312500
        k(   46) = (   0.0000000   0.5000000  -1.0000000), wk =   0.0312500
        k(   47) = (   0.7500000  -0.2500000  -0.2500000), wk =   0.0312500
        k(   48) = (   0.5000000   0.0000000  -0.5000000), wk =   0.0312500
        k(   49) = (   0.2500000   0.2500000  -0.2500000), wk =   0.0312500
        k(   50) = (   0.0000000   0.5000000  -0.5000000), wk =   0.0312500
        k(   51) = (   0.7500000  -0.2500000   0.2500000), wk =   0.0312500
        k(   52) = (   0.5000000   0.0000000   0.0000000), wk =   0.0312500
        k(   53) = (   0.5000000   0.5000000   0.0000000), wk =   0.0312500
        k(   54) = (   0.2500000   0.7500000  -0.2500000), wk =   0.0312500
        k(   55) = (   1.0000000   0.0000000   0.5000000), wk =   0.0312500
        k(   56) = (   0.7500000   0.2500000   0.2500000), wk =   0.0312500
        k(   57) = (  -0.2500000  -0.2500000  -0.7500000), wk =   0.0312500
        k(   58) = (  -0.5000000   0.0000000  -1.0000000), wk =   0.0312500
        k(   59) = (   0.2500000  -0.7500000  -0.2500000), wk =   0.0312500
        k(   60) = (   0.0000000  -0.5000000  -0.5000000), wk =   0.0312500
        k(   61) = (   0.0000000   0.0000000  -0.5000000), wk =   0.0312500
        k(   62) = (  -0.2500000   0.2500000  -0.7500000), wk =   0.0312500
        k(   63) = (   0.5000000  -0.5000000   0.0000000), wk =   0.0312500
        k(   64) = (   0.2500000  -0.2500000  -0.2500000), wk =   0.0312500

     Dense  grid:    10081 G-vectors     FFT dimensions: (  32,  32,  32)

     Estimated max dynamical RAM per process >       0.37MB

     Estimated total allocated dynamical RAM >      14.64MB

     The potential is recalculated from file :
     ./c.save/charge-density.dat

     Starting wfc are   18 randomized atomic wfcs

     Band Structure Calculation
     Davidson diagonalization with overlap

     ethr =  1.25E-12,  avg # of iterations = 11.3

     total cpu time spent up to now is        3.3 secs

     End of band structure calculation

          k = 0.0000 0.0000 0.0000 (  1243 PWs)   bands (ev):

    -8.1912  13.2945  13.2945  13.2945  18.8995  18.8995  18.8995  27.0688

          k =-0.2500 0.2500-0.2500 (  1287 PWs)   bands (ev):

    -6.4508   6.7279  11.5357  11.5357  21.1082  21.1082  21.6404  28.0732

          k = 0.5000-0.5000 0.5000 (  1260 PWs)   bands (ev):

    -2.2436  -0.1782  10.4756  10.4756  21.7722  21.7722  22.5145  28.8800

          k = 0.2500-0.2500 0.2500 (  1287 PWs)   bands (ev):

    -6.4508   6.7279  11.5357  11.5357  21.1082  21.1082  21.6404  28.0732

          k = 0.2500 0.2500 0.2500 (  1287 PWs)   bands (ev):

    -6.4508   6.7279  11.5357  11.5357  21.1082  21.1082  21.6404  28.0732

          k = 0.0000 0.5000 0.0000 (  1283 PWs)   bands (ev):

    -5.8745   8.9091   9.1329   9.1329  17.7923  23.6238  24.9215  24.9215

          k = 0.7500-0.2500 0.7500 (  1271 PWs)   bands (ev):

    -2.0667   2.5419   6.5553   8.3734  19.4165  24.7621  26.1479  26.7666

          k = 0.5000 0.0000 0.5000 (  1278 PWs)   bands (ev):

    -3.6534   4.6797   5.6317  10.2591  21.2860  23.3404  25.7281  27.3656

          k =-0.5000-0.5000-0.5000 (  1260 PWs)   bands (ev):

    -2.2436  -0.1782  10.4756  10.4756  21.7722  21.7722  22.5145  28.8800

          k =-0.7500-0.2500-0.7500 (  1271 PWs)   bands (ev):

    -2.0667   2.5419   6.5553   8.3734  19.4165  24.7621  26.1479  26.7666

          k = 0.0000-1.0000 0.0000 (  1266 PWs)   bands (ev):

     0.6356   0.6356   6.9364   6.9364  18.1023  18.1023  30.1487  30.1487

          k =-0.2500-0.7500-0.2500 (  1271 PWs)   bands (ev):

    -2.0667   2.5419   6.5553   8.3734  19.4165  24.7621  26.1479  26.7666

          k =-0.2500-0.2500-0.2500 (  1287 PWs)   bands (ev):

    -6.4508   6.7279  11.5357  11.5357  21.1082  21.1082  21.6404  28.0732

          k =-0.5000 0.0000-0.5000 (  1278 PWs)   bands (ev):

    -3.6534   4.6797   5.6317  10.2591  21.2860  23.3404  25.7281  27.3656

          k = 0.2500-0.7500 0.2500 (  1271 PWs)   bands (ev):

    -2.0667   2.5419   6.5553   8.3734  19.4165  24.7621  26.1479  26.7666

          k = 0.0000-0.5000 0.0000 (  1283 PWs)   bands (ev):

    -5.8745   8.9091   9.1329   9.1329  17.7923  23.6238  24.9215  24.9215

          k =-0.2500-0.2500 0.2500 (  1287 PWs)   bands (ev):

    -6.4508   6.7279  11.5357  11.5357  21.1082  21.1082  21.6404  28.0732

          k =-0.5000 0.0000 0.0000 (  1283 PWs)   bands (ev):

    -5.8745   8.9091   9.1329   9.1329  17.7923  23.6238  24.9215  24.9215

          k = 0.2500-0.7500 0.7500 (  1271 PWs)   bands (ev):

    -2.0667   2.5419   6.5553   8.3734  19.4165  24.7621  26.1479  26.7666

          k = 0.0000-0.5000 0.5000 (  1278 PWs)   bands (ev):

    -3.6534   4.6797   5.6317  10.2591  21.2860  23.3404  25.7281  27.3656

          k = 0.0000 0.0000 0.5000 (  1283 PWs)   bands (ev):

    -5.8745   8.9091   9.1329   9.1329  17.7923  23.6238  24.9215  24.9215

          k =-0.2500 0.2500 0.2500 (  1287 PWs)   bands (ev):

    -6.4508   6.7279  11.5357  11.5357  21.1082  21.1082  21.6404  28.0732

          k = 0.5000-0.5000 1.0000 (  1278 PWs)   bands (ev):

    -3.6534   4.6797   5.6317  10.2591  21.2860  23.3404  25.7281  27.3656

          k = 0.2500-0.2500 0.7500 (  1271 PWs)   bands (ev):

    -2.0667   2.5419   6.5553   8.3734  19.4165  24.7621  26.1479  26.7666

          k =-0.7500-0.7500-0.2500 (  1271 PWs)   bands (ev):

    -2.0667   2.5419   6.5553   8.3734  19.4165  24.7621  26.1479  26.7666

          k =-1.0000-0.5000-0.5000 (  1278 PWs)   bands (ev):

    -3.6534   4.6797   5.6317  10.2591  21.2860  23.3404  25.7281  27.3656

          k =-0.2500-1.2500 0.2500 (  1271 PWs)   bands (ev):

    -2.0667   2.5419   6.5553   8.3734  19.4165  24.7621  26.1479  26.7666

          k =-0.5000-1.0000 0.0000 (  1256 PWs)   bands (ev):

     1.4948   1.4948   4.8441   4.8441  23.8514  23.8514  25.8052  25.8052

          k =-0.5000-0.5000 0.0000 (  1278 PWs)   bands (ev):

    -3.6534   4.6797   5.6317  10.2591  21.2860  23.3404  25.7281  27.3656

          k =-0.7500-0.2500-0.2500 (  1271 PWs)   bands (ev):

    -2.0667   2.5419   6.5553   8.3734  19.4165  24.7621  26.1479  26.7666

          k = 0.0000-1.0000 0.5000 (  1256 PWs)   bands (ev):

     1.4948   1.4948   4.8441   4.8441  23.8514  23.8514  25.8052  25.8052

          k =-0.2500-0.7500 0.2500 (  1271 PWs)   bands (ev):

    -2.0667   2.5419   6.5553   8.3734  19.4165  24.7621  26.1479  26.7666

          k = 0.5000 0.5000-0.5000 (  1260 PWs)   bands (ev):

    -2.2436  -0.1782  10.4756  10.4756  21.7722  21.7722  22.5145  28.8800

          k = 0.2500 0.7500-0.7500 (  1271 PWs)   bands (ev):

    -2.0667   2.5419   6.5553   8.3734  19.4165  24.7621  26.1479  26.7666

          k = 1.0000 0.0000 0.0000 (  1266 PWs)   bands (ev):

     0.6356   0.6356   6.9364   6.9364  18.1023  18.1023  30.1487  30.1487

          k = 0.7500 0.2500-0.2500 (  1271 PWs)   bands (ev):

    -2.0667   2.5419   6.5553   8.3734  19.4165  24.7621  26.1479  26.7666

          k = 0.7500 0.7500-0.2500 (  1271 PWs)   bands (ev):

    -2.0667   2.5419   6.5553   8.3734  19.4165  24.7621  26.1479  26.7666

          k = 0.5000 1.0000-0.5000 (  1278 PWs)   bands (ev):

    -3.6534   4.6797   5.6317  10.2591  21.2860  23.3404  25.7281  27.3656

          k = 1.2500 0.2500 0.2500 (  1271 PWs)   bands (ev):

    -2.0667   2.5419   6.5553   8.3734  19.4165  24.7621  26.1479  26.7666

          k = 1.0000 0.5000 0.0000 (  1256 PWs)   bands (ev):

     1.4948   1.4948   4.8441   4.8441  23.8514  23.8514  25.8052  25.8052

          k = 0.0000 0.0000-1.0000 (  1266 PWs)   bands (ev):

     0.6356   0.6356   6.9364   6.9364  18.1023  18.1023  30.1487  30.1487

          k =-0.2500 0.2500-1.2500 (  1271 PWs)   bands (ev):

    -2.0667   2.5419   6.5553   8.3734  19.4165  24.7621  26.1479  26.7666

          k = 0.5000-0.5000-0.5000 (  1260 PWs)   bands (ev):

    -2.2436  -0.1782  10.4756  10.4756  21.7722  21.7722  22.5145  28.8800

          k = 0.2500-0.2500-0.7500 (  1271 PWs)   bands (ev):

    -2.0667   2.5419   6.5553   8.3734  19.4165  24.7621  26.1479  26.7666

          k = 0.2500 0.2500-0.7500 (  1271 PWs)   bands (ev):

    -2.0667   2.5419   6.5553   8.3734  19.4165  24.7621  26.1479  26.7666

          k = 0.0000 0.5000-1.0000 (  1256 PWs)   bands (ev):

     1.4948   1.4948   4.8441   4.8441  23.8514  23.8514  25.8052  25.8052

          k = 0.7500-0.2500-0.2500 (  1271 PWs)   bands (ev):

    -2.0667   2.5419   6.5553   8.3734  19.4165  24.7621  26.1479  26.7666

          k = 0.5000 0.0000-0.5000 (  1278 PWs)   bands (ev):

    -3.6534   4.6797   5.6317  10.2591  21.2860  23.3404  25.7281  27.3656

          k = 0.2500 0.2500-0.2500 (  1287 PWs)   bands (ev):

    -6.4508   6.7279  11.5357  11.5357  21.1082  21.1082  21.6404  28.0732

          k = 0.0000 0.5000-0.5000 (  1278 PWs)   bands (ev):

    -3.6534   4.6797   5.6317  10.2591  21.2860  23.3404  25.7281  27.3656

          k = 0.7500-0.2500 0.2500 (  1271 PWs)   bands (ev):

    -2.0667   2.5419   6.5553   8.3734  19.4165  24.7621  26.1479  26.7666

          k = 0.5000 0.0000 0.0000 (  1283 PWs)   bands (ev):

    -5.8745   8.9091   9.1329   9.1329  17.7923  23.6238  24.9215  24.9215

          k = 0.5000 0.5000 0.0000 (  1278 PWs)   bands (ev):

    -3.6534   4.6797   5.6317  10.2591  21.2860  23.3404  25.7281  27.3656

          k = 0.2500 0.7500-0.2500 (  1271 PWs)   bands (ev):

    -2.0667   2.5419   6.5553   8.3734  19.4165  24.7621  26.1479  26.7666

          k = 1.0000 0.0000 0.5000 (  1256 PWs)   bands (ev):

     1.4948   1.4948   4.8441   4.8441  23.8514  23.8514  25.8052  25.8052

          k = 0.7500 0.2500 0.2500 (  1271 PWs)   bands (ev):

    -2.0667   2.5419   6.5553   8.3734  19.4165  24.7621  26.1479  26.7666

          k =-0.2500-0.2500-0.7500 (  1271 PWs)   bands (ev):

    -2.0667   2.5419   6.5553   8.3734  19.4165  24.7621  26.1479  26.7666

          k =-0.5000 0.0000-1.0000 (  1256 PWs)   bands (ev):

     1.4948   1.4948   4.8441   4.8441  23.8514  23.8514  25.8052  25.8052

          k = 0.2500-0.7500-0.2500 (  1271 PWs)   bands (ev):

    -2.0667   2.5419   6.5553   8.3734  19.4165  24.7621  26.1479  26.7666

          k = 0.0000-0.5000-0.5000 (  1278 PWs)   bands (ev):

    -3.6534   4.6797   5.6317  10.2591  21.2860  23.3404  25.7281  27.3656

          k = 0.0000 0.0000-0.5000 (  1283 PWs)   bands (ev):

    -5.8745   8.9091   9.1329   9.1329  17.7923  23.6238  24.9215  24.9215

          k =-0.2500 0.2500-0.7500 (  1271 PWs)   bands (ev):

    -2.0667   2.5419   6.5553   8.3734  19.4165  24.7621  26.1479  26.7666

          k = 0.5000-0.5000 0.0000 (  1278 PWs)   bands (ev):

    -3.6534   4.6797   5.6317  10.2591  21.2860  23.3404  25.7281  27.3656

          k = 0.2500-0.2500-0.2500 (  1287 PWs)   bands (ev):

    -6.4508   6.7279  11.5357  11.5357  21.1082  21.1082  21.6404  28.0732

     highest occupied, lowest unoccupied level (ev):    13.2945   17.7923

     Writing output data file c.save
 
     init_run     :      0.01s CPU      0.02s WALL (       1 calls)
     electrons    :      3.02s CPU      3.09s WALL (       1 calls)

     Called by init_run:
     wfcinit      :      0.00s CPU      0.00s WALL (       1 calls)
     potinit      :      0.00s CPU      0.00s WALL (       1 calls)

     Called by electrons:
     c_bands      :      3.02s CPU      3.08s WALL (       1 calls)
     v_of_rho     :      0.00s CPU      0.00s WALL (       1 calls)

     Called by c_bands:
     init_us_2    :      0.00s CPU      0.00s WALL (      64 calls)
     cegterg      :      2.74s CPU      2.79s WALL (      64 calls)

     Called by sum_band:

     Called by *egterg:
     h_psi        :      0.48s CPU      0.49s WALL (     852 calls)
     g_psi        :      0.00s CPU      0.00s WALL (     724 calls)
     cdiaghg      :      1.75s CPU      1.77s WALL (     788 calls)

     Called by h_psi:
     h_psi:pot    :      0.47s CPU      0.49s WALL (     852 calls)
     h_psi:calbec :      0.03s CPU      0.03s WALL (     852 calls)
     vloc_psi     :      0.44s CPU      0.45s WALL (     852 calls)
     add_vuspsi   :      0.01s CPU      0.01s WALL (     852 calls)

     General routines
     calbec       :      0.03s CPU      0.03s WALL (     852 calls)
     fft          :      0.00s CPU      0.00s WALL (       3 calls)
     fftw         :      0.41s CPU      0.42s WALL (   12332 calls)
 
     Parallel routines
     fft_scatter  :      0.33s CPU      0.34s WALL (   12335 calls)
 
     PWSCF        :     3.56s CPU         4.03s WALL

 
   This run was terminated on:  11:23:51  20Jan2021            

=------------------------------------------------------------------------------=
   JOB DONE.
=------------------------------------------------------------------------------=
