
.Version 8.8.2 of ABINIT 
.(MPI version, prepared for a x86_64_linux_intel16.0 computer) 

.Copyright (C) 1998-2018 ABINIT group . 
 ABINIT comes with ABSOLUTELY NO WARRANTY.
 It is free software, and you are welcome to redistribute it
 under certain conditions (GNU General Public License,
 see ~abinit/COPYING or http://www.gnu.org/copyleft/gpl.txt).

 ABINIT is a project of the Universite Catholique de Louvain,
 Corning Inc. and other collaborators, see ~abinit/doc/developers/contributors.txt .
 Please read ~abinit/doc/users/acknowledgments.html for suggested
 acknowledgments of the ABINIT effort.
 For more information, see https://www.abinit.org .

.Starting date : Tue 15 Dec 2020.
- ( at 15h38 )
  
- The starting date is more than 2 years after the initial release
- of this version of ABINIT, namely May 2018.
- Note that the use beyond 3 years after the release will not be supported.
- Action: please, switch to a more recent version of ABINIT.
 
- input  file    -> diamond_gw_ppm.in
- output file    -> diamond_gw_ppm.out
- root for input  files -> diamond_gw_ppm_i
- root for output files -> diamond_gw_ppm_o
 
 
 DATASET    1 : space group Fd -3 m (#227); Bravais cF (face-center cubic)
================================================================================
 Values of the parameters that define the memory need for DATASET  1.
     intxc =       0    ionmov =       0      iscf =      12    lmnmax =       3
     lnmax =       3     mgfft =      24  mpssoang =       3    mqgrid =    3001
     natom =       2  nloc_mem =       1    nspden =       1   nspinor =       1
    nsppol =       1      nsym =      48    n1xccc =       0    ntypat =       1
    occopt =       1   xclevel =       1
-    mband =         105        mffmem =           1         mkmem =           1
       mpw =         609          nfft =       13824          nkpt =           8
================================================================================
P This job should need less than                       4.648 Mbytes of memory.
  Rough estimation (10% accuracy) of disk space for files :
_ WF disk file :      7.808 Mbytes ; DEN or POT disk file :      0.107 Mbytes.
================================================================================
 
 
 DATASET    2 : space group Fd -3 m (#227); Bravais cF (face-center cubic)
================================================================================
 Values of the parameters that define the memory need for DATASET  2.
     intxc =       0    ionmov =       0      iscf =       7    lmnmax =       3
     lnmax =       3     mgfft =      24  mpssoang =       3    mqgrid =    3001
     natom =       2  nloc_mem =       1    nspden =       1   nspinor =       1
    nsppol =       1      nsym =      48    n1xccc =       0    ntypat =       1
    occopt =       1   xclevel =       1
-    mband =         100        mffmem =           1         mkmem =           1
       mpw =         604          nfft =       13824          nkpt =           8
================================================================================
P This job should need less than                       5.617 Mbytes of memory.
  Rough estimation (10% accuracy) of disk space for files :
_ WF disk file :      7.375 Mbytes ; DEN or POT disk file :      0.107 Mbytes.
================================================================================
 
 
 DATASET    3 : space group Fd -3 m (#227); Bravais cF (face-center cubic)
================================================================================
 Values of the parameters that define the memory need for DATASET  3.
     intxc =       0    ionmov =       0      iscf =       7    lmnmax =       3
     lnmax =       3     mgfft =      24  mpssoang =       3    mqgrid =    3001
     natom =       2  nloc_mem =       1    nspden =       1   nspinor =       1
    nsppol =       1      nsym =      48    n1xccc =       0    ntypat =       1
    occopt =       1   xclevel =       1
-    mband =         100        mffmem =           1         mkmem =           1
       mpw =         604          nfft =       13824          nkpt =           8
================================================================================
P This job should need less than                       5.617 Mbytes of memory.
  Rough estimation (10% accuracy) of disk space for files :
_ WF disk file :      7.375 Mbytes ; DEN or POT disk file :      0.107 Mbytes.
================================================================================
 
--------------------------------------------------------------------------------
------------- Echo of variables that govern the present computation ------------
--------------------------------------------------------------------------------
-
- outvars: echo of selected default values                                      
-   iomode0 =  0 , fftalg0 =112 , wfoptalg0 =  0
-
- outvars: echo of global parameters not present in the input file              
-  max_nthreads =    1
-
 -outvars: echo values of preprocessed input variables --------
            acell      6.7034255112E+00  6.7034255112E+00  6.7034255112E+00 Bohr
              amu      1.20110000E+01
           diemac      6.00000000E+00
             ecut1     3.00000000E+01 Hartree
             ecut2     2.98706778E+01 Hartree
             ecut3     2.98706778E+01 Hartree
          ecuteps1     0.00000000E+00 Hartree
          ecuteps2     7.02839479E+00 Hartree
          ecuteps3     7.02839479E+00 Hartree
         ecutsigx1     0.00000000E+00 Hartree
         ecutsigx2     0.00000000E+00 Hartree
         ecutsigx3     2.98706778E+01 Hartree
          ecutwfn1     0.00000000E+00 Hartree
          ecutwfn2     2.98706778E+01 Hartree
          ecutwfn3     2.98706778E+01 Hartree
-          fftalg         112
           getscr1          0
           getscr2          0
           getscr3         -1
           getwfk1          0
           getwfk2         -1
           getwfk3         -2
       gw_qprange1          0
       gw_qprange2          0
       gw_qprange3         -4
         icutcoul           7
             iscf1         12
             iscf2          7
             iscf3          7
           istwfk        1    0    1    0    0    0    1    0
              ixc           2
           jdtset        1    2    3
              kpt      0.00000000E+00  0.00000000E+00  0.00000000E+00
                       2.50000000E-01  0.00000000E+00  0.00000000E+00
                       5.00000000E-01  0.00000000E+00  0.00000000E+00
                       2.50000000E-01  2.50000000E-01  0.00000000E+00
                       5.00000000E-01  2.50000000E-01  0.00000000E+00
                      -2.50000000E-01  2.50000000E-01  0.00000000E+00
                       5.00000000E-01  5.00000000E-01  0.00000000E+00
                      -2.50000000E-01  5.00000000E-01  2.50000000E-01
         kptrlatt        4    0    0      0    4    0      0    0    4
          kptrlen      1.89601505E+01
P           mkmem           1
            natom           2
            nband1        105
            nband2        100
            nband3        100
           nbdbuf1          5
           nbdbuf2          0
           nbdbuf3          0
           ndtset           3
            ngfft          24      24      24
             nkpt           8
           npweps1          0
           npweps2         65
           npweps3         65
          npwsigx1          0
          npwsigx2          0
          npwsigx3        609
           npwwfn1          0
           npwwfn2        609
           npwwfn3        609
            nstep         200
             nsym          48
           ntypat           1
              occ1     2.000000  2.000000  2.000000  2.000000  0.000000  0.000000
                       0.000000  0.000000  0.000000  0.000000  0.000000  0.000000
                       0.000000  0.000000  0.000000  0.000000  0.000000  0.000000
                       0.000000  0.000000  0.000000  0.000000  0.000000  0.000000
                       0.000000  0.000000  0.000000  0.000000  0.000000  0.000000
                       0.000000  0.000000  0.000000  0.000000  0.000000  0.000000
                       0.000000  0.000000  0.000000  0.000000  0.000000  0.000000
                       0.000000  0.000000  0.000000  0.000000  0.000000  0.000000
                       0.000000  0.000000  0.000000  0.000000  0.000000  0.000000
                       0.000000  0.000000  0.000000  0.000000  0.000000  0.000000
                       0.000000  0.000000  0.000000  0.000000  0.000000  0.000000
                       0.000000  0.000000  0.000000  0.000000  0.000000  0.000000
                       0.000000  0.000000  0.000000  0.000000  0.000000  0.000000
                       0.000000  0.000000  0.000000  0.000000  0.000000  0.000000
                       0.000000  0.000000  0.000000  0.000000  0.000000  0.000000
                       0.000000  0.000000  0.000000  0.000000  0.000000  0.000000
                       0.000000  0.000000  0.000000  0.000000  0.000000  0.000000
                       0.000000  0.000000  0.000000
              occ2     2.000000  2.000000  2.000000  2.000000  0.000000  0.000000
                       0.000000  0.000000  0.000000  0.000000  0.000000  0.000000
                       0.000000  0.000000  0.000000  0.000000  0.000000  0.000000
                       0.000000  0.000000  0.000000  0.000000  0.000000  0.000000
                       0.000000  0.000000  0.000000  0.000000  0.000000  0.000000
                       0.000000  0.000000  0.000000  0.000000  0.000000  0.000000
                       0.000000  0.000000  0.000000  0.000000  0.000000  0.000000
                       0.000000  0.000000  0.000000  0.000000  0.000000  0.000000
                       0.000000  0.000000  0.000000  0.000000  0.000000  0.000000
                       0.000000  0.000000  0.000000  0.000000  0.000000  0.000000
                       0.000000  0.000000  0.000000  0.000000  0.000000  0.000000
                       0.000000  0.000000  0.000000  0.000000  0.000000  0.000000
                       0.000000  0.000000  0.000000  0.000000  0.000000  0.000000
                       0.000000  0.000000  0.000000  0.000000  0.000000  0.000000
                       0.000000  0.000000  0.000000  0.000000  0.000000  0.000000
                       0.000000  0.000000  0.000000  0.000000  0.000000  0.000000
                       0.000000  0.000000  0.000000  0.000000
              occ3     2.000000  2.000000  2.000000  2.000000  0.000000  0.000000
                       0.000000  0.000000  0.000000  0.000000  0.000000  0.000000
                       0.000000  0.000000  0.000000  0.000000  0.000000  0.000000
                       0.000000  0.000000  0.000000  0.000000  0.000000  0.000000
                       0.000000  0.000000  0.000000  0.000000  0.000000  0.000000
                       0.000000  0.000000  0.000000  0.000000  0.000000  0.000000
                       0.000000  0.000000  0.000000  0.000000  0.000000  0.000000
                       0.000000  0.000000  0.000000  0.000000  0.000000  0.000000
                       0.000000  0.000000  0.000000  0.000000  0.000000  0.000000
                       0.000000  0.000000  0.000000  0.000000  0.000000  0.000000
                       0.000000  0.000000  0.000000  0.000000  0.000000  0.000000
                       0.000000  0.000000  0.000000  0.000000  0.000000  0.000000
                       0.000000  0.000000  0.000000  0.000000  0.000000  0.000000
                       0.000000  0.000000  0.000000  0.000000  0.000000  0.000000
                       0.000000  0.000000  0.000000  0.000000  0.000000  0.000000
                       0.000000  0.000000  0.000000  0.000000  0.000000  0.000000
                       0.000000  0.000000  0.000000  0.000000
        optdriver1          0
        optdriver2          3
        optdriver3          4
           ppmfrq1     0.00000000E+00 Hartree
           ppmfrq2     5.00000000E-01 Hartree
           ppmfrq3     5.00000000E-01 Hartree
          ppmodel1          1
          ppmodel2          2
          ppmodel3          2
            rprim      0.0000000000E+00  5.0000000000E-01  5.0000000000E-01
                       5.0000000000E-01  0.0000000000E+00  5.0000000000E-01
                       5.0000000000E-01  5.0000000000E-01  0.0000000000E+00
          spgroup         227
           symrel      1  0  0   0  1  0   0  0  1      -1  0  0   0 -1  0   0  0 -1
                       0 -1  1   0 -1  0   1 -1  0       0  1 -1   0  1  0  -1  1  0
                      -1  0  0  -1  0  1  -1  1  0       1  0  0   1  0 -1   1 -1  0
                       0  1 -1   1  0 -1   0  0 -1       0 -1  1  -1  0  1   0  0  1
                      -1  0  0  -1  1  0  -1  0  1       1  0  0   1 -1  0   1  0 -1
                       0 -1  1   1 -1  0   0 -1  0       0  1 -1  -1  1  0   0  1  0
                       1  0  0   0  0  1   0  1  0      -1  0  0   0  0 -1   0 -1  0
                       0  1 -1   0  0 -1   1  0 -1       0 -1  1   0  0  1  -1  0  1
                      -1  0  1  -1  1  0  -1  0  0       1  0 -1   1 -1  0   1  0  0
                       0 -1  0   1 -1  0   0 -1  1       0  1  0  -1  1  0   0  1 -1
                       1  0 -1   0  0 -1   0  1 -1      -1  0  1   0  0  1   0 -1  1
                       0  1  0   0  0  1   1  0  0       0 -1  0   0  0 -1  -1  0  0
                       1  0 -1   0  1 -1   0  0 -1      -1  0  1   0 -1  1   0  0  1
                       0 -1  0   0 -1  1   1 -1  0       0  1  0   0  1 -1  -1  1  0
                      -1  0  1  -1  0  0  -1  1  0       1  0 -1   1  0  0   1 -1  0
                       0  1  0   1  0  0   0  0  1       0 -1  0  -1  0  0   0  0 -1
                       0  0 -1   0  1 -1   1  0 -1       0  0  1   0 -1  1  -1  0  1
                       1 -1  0   0 -1  1   0 -1  0      -1  1  0   0  1 -1   0  1  0
                       0  0  1   1  0  0   0  1  0       0  0 -1  -1  0  0   0 -1  0
                      -1  1  0  -1  0  0  -1  0  1       1 -1  0   1  0  0   1  0 -1
                       0  0  1   0  1  0   1  0  0       0  0 -1   0 -1  0  -1  0  0
                       1 -1  0   0 -1  0   0 -1  1      -1  1  0   0  1  0   0  1 -1
                       0  0 -1   1  0 -1   0  1 -1       0  0  1  -1  0  1   0 -1  1
                      -1  1  0  -1  0  1  -1  0  0       1 -1  0   1  0 -1   1  0  0
            tnons      0.0000000  0.0000000  0.0000000     0.2500000  0.2500000  0.2500000
                       0.0000000  0.0000000  0.0000000     0.2500000  0.2500000  0.2500000
                       0.0000000  0.0000000  0.0000000     0.2500000  0.2500000  0.2500000
                       0.0000000  0.0000000  0.0000000     0.2500000  0.2500000  0.2500000
                       0.0000000  0.0000000  0.0000000     0.2500000  0.2500000  0.2500000
                       0.0000000  0.0000000  0.0000000     0.2500000  0.2500000  0.2500000
                       0.0000000  0.0000000  0.0000000     0.2500000  0.2500000  0.2500000
                       0.0000000  0.0000000  0.0000000     0.2500000  0.2500000  0.2500000
                       0.0000000  0.0000000  0.0000000     0.2500000  0.2500000  0.2500000
                       0.0000000  0.0000000  0.0000000     0.2500000  0.2500000  0.2500000
                       0.0000000  0.0000000  0.0000000     0.2500000  0.2500000  0.2500000
                       0.0000000  0.0000000  0.0000000     0.2500000  0.2500000  0.2500000
                       0.0000000  0.0000000  0.0000000     0.2500000  0.2500000  0.2500000
                       0.0000000  0.0000000  0.0000000     0.2500000  0.2500000  0.2500000
                       0.0000000  0.0000000  0.0000000     0.2500000  0.2500000  0.2500000
                       0.0000000  0.0000000  0.0000000     0.2500000  0.2500000  0.2500000
                       0.0000000  0.0000000  0.0000000     0.2500000  0.2500000  0.2500000
                       0.0000000  0.0000000  0.0000000     0.2500000  0.2500000  0.2500000
                       0.0000000  0.0000000  0.0000000     0.2500000  0.2500000  0.2500000
                       0.0000000  0.0000000  0.0000000     0.2500000  0.2500000  0.2500000
                       0.0000000  0.0000000  0.0000000     0.2500000  0.2500000  0.2500000
                       0.0000000  0.0000000  0.0000000     0.2500000  0.2500000  0.2500000
                       0.0000000  0.0000000  0.0000000     0.2500000  0.2500000  0.2500000
                       0.0000000  0.0000000  0.0000000     0.2500000  0.2500000  0.2500000
           tolvrs1     1.00000000E-20
           tolvrs2     0.00000000E+00
           tolvrs3     0.00000000E+00
            typat      1  1
       usepotzero1          2
       usepotzero2          0
       usepotzero3          0
              wtk        0.01563    0.12500    0.06250    0.09375    0.37500    0.18750
                         0.04688    0.09375
           xangst      0.0000000000E+00  0.0000000000E+00  0.0000000000E+00
                       8.8682500000E-01  8.8682500000E-01  8.8682500000E-01
            xcart      0.0000000000E+00  0.0000000000E+00  0.0000000000E+00
                       1.6758563778E+00  1.6758563778E+00  1.6758563778E+00
             xred      0.0000000000E+00  0.0000000000E+00  0.0000000000E+00
                       2.5000000000E-01  2.5000000000E-01  2.5000000000E-01
            znucl        6.00000
 
================================================================================
 
 chkinp: Checking input parameters for consistency, jdtset=   1.
 
 chkinp: Checking input parameters for consistency, jdtset=   2.
 
 chkinp: Checking input parameters for consistency, jdtset=   3.
 
================================================================================
== DATASET  1 ==================================================================
-   nproc =   40   -> not optimal: autoparal keyword recommended in input file
 
 Exchange-correlation functional for the present dataset will be:
  LDA: Perdew-Zunger-Ceperley-Alder - ixc=2
 Citation for XC functional:
  J.P.Perdew and A.Zunger, PRB 23, 5048 (1981)
 
 Real(R)+Recip(G) space primitive vectors, cartesian coordinates (Bohr,Bohr^-1):
 R(1)=  0.0000000  3.3517128  3.3517128  G(1)= -0.1491775  0.1491775  0.1491775
 R(2)=  3.3517128  0.0000000  3.3517128  G(2)=  0.1491775 -0.1491775  0.1491775
 R(3)=  3.3517128  3.3517128  0.0000000  G(3)=  0.1491775  0.1491775 -0.1491775
 Unit cell volume ucvol=  7.5306137E+01 bohr^3
 Angles (23,13,12)=  6.00000000E+01  6.00000000E+01  6.00000000E+01 degrees
 
 getcut: wavevector=  0.0000  0.0000  0.0000  ngfft=  24  24  24
         ecut(hartree)=     30.000   => boxcut(ratio)=   2.05354
 
--- Pseudopotential description ------------------------------------------------
- pspini: atom type   1  psp file is ../C.pz-mt.fhi
- pspatm: opening atomic psp file    ../C.pz-mt.fhi
- Carbon, fhi98PP: Troullier-Martins type, LDA CA Perdew/Zunger 1980, generated by Han Yang
-  6.00000   4.00000    200323                znucl, zion, pspdat
    6    2    2    2       461   0.00000      pspcod,pspxc,lmax,lloc,mmax,r2well
    0.00000000000000    0.00000000000000    0.00000000000000   rchrg,fchrg,qchrg
  1.024700          amesh (Hamman grid)
  pspatm : epsatm=    2.67376634
         --- l  ekb(1:nproj) -->
             0    3.126556
             1   -1.684041
 pspatm: atomic psp has been read  and splines computed
 
   4.27802615E+01                                ecore*ucvol(ha*bohr**3)
--------------------------------------------------------------------------------
 
_setup2: Arith. and geom. avg. npw (full set) are     593.953     593.920
 
================================================================================
 
     iter   Etot(hartree)      deltaE(h)  residm     nres2
 ETOT  1  -12.035028835838    -1.204E+01 8.240E-02 1.020E+01
 ETOT  2  -11.439513983533     5.955E-01 2.078E-03 7.806E-02
 ETOT  3  -11.439415839645     9.814E-05 1.588E-03 3.924E-04
 ETOT  4  -11.439414238182     1.601E-06 4.269E-04 8.701E-06
 ETOT  5  -11.439414243394    -5.212E-09 4.406E-04 5.193E-08
 ETOT  6  -11.439414243372     2.248E-11 1.543E-04 1.432E-09
 ETOT  7  -11.439414243375    -3.396E-12 1.424E-04 1.299E-11
 ETOT  8  -11.439414243375    -4.619E-14 4.399E-05 3.193E-13
 ETOT  9  -11.439414243375    -4.086E-14 3.926E-05 3.983E-15
 ETOT 10  -11.439414243375    -1.013E-13 1.131E-05 8.392E-17
 ETOT 11  -11.439414243375     3.197E-14 1.007E-05 1.238E-18
 ETOT 12  -11.439414243375     2.309E-14 3.499E-06 2.369E-20
 ETOT 13  -11.439414243375     1.101E-13 2.498E-06 3.791E-22
 
 At SCF step   13       nres2   =  3.79E-22 < tolvrs=  1.00E-20 =>converged.
 
 Cartesian components of stress tensor (hartree/bohr^3)
  sigma(1 1)=  3.38468311E-04  sigma(3 2)=  0.00000000E+00
  sigma(2 2)=  3.38468311E-04  sigma(3 1)=  0.00000000E+00
  sigma(3 3)=  3.38468311E-04  sigma(2 1)=  0.00000000E+00
 
 Integrated electronic density in atomic spheres:
 ------------------------------------------------
 Atom  Sphere_radius  Integrated_density
    1        2.00000          4.71109647
    2        2.00000          4.71109647
================================================================================
 
 ----iterations are completed or convergence reached----
 
 Mean square residual over all n,k,spin=   5.7195E-07; max=  1.9084E-04
 reduced coordinates (array xred) for    2 atoms
       0.000000000000      0.000000000000      0.000000000000
       0.250000000000      0.250000000000      0.250000000000
 rms dE/dt=  0.0000E+00; max dE/dt=  0.0000E+00; dE/dt below (all hartree)
    1       0.000000000000      0.000000000000      0.000000000000
    2       0.000000000000      0.000000000000      0.000000000000
 
 cartesian coordinates (angstrom) at end:
    1      0.00000000000000     0.00000000000000     0.00000000000000
    2      0.88682500000000     0.88682500000000     0.88682500000000
 
 cartesian forces (hartree/bohr) at end:
    1      0.00000000000000     0.00000000000000     0.00000000000000
    2      0.00000000000000     0.00000000000000     0.00000000000000
 frms,max,avg= 0.0000000E+00 0.0000000E+00   0.000E+00  0.000E+00  0.000E+00 h/b
 
 cartesian forces (eV/Angstrom) at end:
    1      0.00000000000000     0.00000000000000     0.00000000000000
    2      0.00000000000000     0.00000000000000     0.00000000000000
 frms,max,avg= 0.0000000E+00 0.0000000E+00   0.000E+00  0.000E+00  0.000E+00 e/A
 length scales=  6.703425511185  6.703425511185  6.703425511185 bohr
              =  3.547300000000  3.547300000000  3.547300000000 angstroms
 prteigrs : about to open file diamond_gw_ppm_o_DS1_EIG
 Fermi (or HOMO) energy (hartree) =   0.48977   Average Vxc (hartree)=  -0.49735
 Eigenvalues (hartree) for nkpt=   8  k points:
 kpt#   1, nband=105, wtk=  0.01563, kpt=  0.0000  0.0000  0.0000 (reduced coord)
  -0.30036    0.48977    0.48977    0.48977    0.69543    0.69543    0.69543    0.99594
   1.19333    1.47792    1.47792    1.50226    1.50226    1.50226    1.75744    2.24208
   2.24208    2.24208    2.99091    2.99091    2.99091    3.15390    3.15390    3.25861
   3.25861    3.25861    3.46061    3.46061    3.46061    3.54762    4.15921    4.15921
   4.15921    4.37365    4.37365    4.38285    4.38285    4.38285    4.38362    4.38362
   4.54769    4.54769    4.54769    4.55691    4.59267    4.59267    4.59267    4.63330
   4.63330    4.63330    4.69320    4.97409    4.97409    4.97409    5.00179    5.00179
   5.00179    5.06826    5.14463    6.46978    6.46978    6.46978    6.61505    6.61505
   6.74709    6.93459    6.93459    6.93459    7.28295    7.28295    7.28295    7.57272
   7.65407    7.65407    7.74432    7.74432    7.74432    7.76085    7.76085    7.76085
   7.77764    7.83850    7.83850    7.83850    7.98988    7.98988    7.98988    8.00214
   8.00214    8.29292    8.29292    8.29292    8.29904    8.29904    8.42319    8.49433
   8.49433    8.49433    8.50833    8.50834    8.50835    8.53756    8.53769    8.53800
   8.55565
 prteigrs : prtvol=0 or 1, do not print more k-points.
 
 
--------------------------------------------------------------------------------
 Components of total free energy (in Hartree) :
 
    Kinetic energy  =  8.40760028718506E+00
    Hartree energy  =  9.61065436656318E-01
    XC energy       = -3.55074269045543E+00
    Ewald energy    = -1.28574217111022E+01
    PspCore energy  =  0.00000000000000E+00
    Loc. psp. energy= -4.58893694126960E+00
    NL   psp  energy=  1.89021375611084E-01
    >>>>>>>>> Etotal= -1.14394142433747E+01
 
 "Double-counting" decomposition of free energy:
    Band energy     =  1.28720294553479E+00
    Ewald energy    = -1.28574217111022E+01
    PspCore energy  =  0.00000000000000E+00
    Dble-C XC-energy=  1.30804522192202E-01
    >>>> Etotal (DC)= -1.14394142433752E+01
--------------------------------------------------------------------------------
 
 Cartesian components of stress tensor (hartree/bohr^3)
  sigma(1 1)=  3.38468311E-04  sigma(3 2)=  0.00000000E+00
  sigma(2 2)=  3.38468311E-04  sigma(3 1)=  0.00000000E+00
  sigma(3 3)=  3.38468311E-04  sigma(2 1)=  0.00000000E+00
 
-Cartesian components of stress tensor (GPa)         [Pressure= -9.9581E+00 GPa]
- sigma(1 1)=  9.95807984E+00  sigma(3 2)=  0.00000000E+00
- sigma(2 2)=  9.95807984E+00  sigma(3 1)=  0.00000000E+00
- sigma(3 3)=  9.95807984E+00  sigma(2 1)=  0.00000000E+00
 
================================================================================
== DATASET  2 ==================================================================
-   nproc =   40   -> not optimal: autoparal keyword recommended in input file
 
 mkfilename : getwfk/=0, take file _WFK from output of DATASET   1.
 
 Exchange-correlation functional for the present dataset will be:
  LDA: Perdew-Zunger-Ceperley-Alder - ixc=2
 Citation for XC functional:
  J.P.Perdew and A.Zunger, PRB 23, 5048 (1981)
 
 SCREENING: Calculation of the susceptibility and dielectric matrices 
 
 Based on a program developped by R.W. Godby, V. Olevano, G. Onida, and L. Reining.
 Incorporated in ABINIT by V. Olevano, G.-M. Rignanese, and M. Torrent.
.Using single precision arithmetic ; gwpc =  4
 
 Real(R)+Recip(G) space primitive vectors, cartesian coordinates (Bohr,Bohr^-1):
 R(1)=  0.0000000  3.3517128  3.3517128  G(1)= -0.1491775  0.1491775  0.1491775
 R(2)=  3.3517128  0.0000000  3.3517128  G(2)=  0.1491775 -0.1491775  0.1491775
 R(3)=  3.3517128  3.3517128  0.0000000  G(3)=  0.1491775  0.1491775 -0.1491775
 Unit cell volume ucvol=  7.5306137E+01 bohr^3
 Angles (23,13,12)=  6.00000000E+01  6.00000000E+01  6.00000000E+01 degrees
 
--- Pseudopotential description ------------------------------------------------
- pspini: atom type   1  psp file is ../C.pz-mt.fhi
- pspatm: opening atomic psp file    ../C.pz-mt.fhi
- Carbon, fhi98PP: Troullier-Martins type, LDA CA Perdew/Zunger 1980, generated by Han Yang
-  6.00000   4.00000    200323                znucl, zion, pspdat
    6    2    2    2       461   0.00000      pspcod,pspxc,lmax,lloc,mmax,r2well
    0.00000000000000    0.00000000000000    0.00000000000000   rchrg,fchrg,qchrg
  1.024700          amesh (Hamman grid)
  pspatm : epsatm=    2.67376634
         --- l  ekb(1:nproj) -->
             0    3.126556
             1   -1.684041
 pspatm: atomic psp has been read  and splines computed
 
--------------------------------------------------------------------------------
 
 ==== K-mesh for the wavefunctions ====
 Number of points in the irreducible wedge :     8
 Reduced coordinates and weights : 
 
     1)     0.00000000E+00  0.00000000E+00  0.00000000E+00       0.01563
     2)     2.50000000E-01  0.00000000E+00  0.00000000E+00       0.12500
     3)     5.00000000E-01  0.00000000E+00  0.00000000E+00       0.06250
     4)     2.50000000E-01  2.50000000E-01  0.00000000E+00       0.09375
     5)     5.00000000E-01  2.50000000E-01  0.00000000E+00       0.37500
     6)    -2.50000000E-01  2.50000000E-01  0.00000000E+00       0.18750
     7)     5.00000000E-01  5.00000000E-01  0.00000000E+00       0.04688
     8)    -2.50000000E-01  5.00000000E-01  2.50000000E-01       0.09375
 
 Together with 48 symmetry operations and time-reversal symmetry 
 yields    64 points in the full Brillouin Zone.
 
 
 ==== Q-mesh for the screening function ====
 Number of points in the irreducible wedge :     8
 Reduced coordinates and weights : 
 
     1)     0.00000000E+00  0.00000000E+00  0.00000000E+00       0.01563
     2)     2.50000000E-01  0.00000000E+00  0.00000000E+00       0.12500
     3)     5.00000000E-01  0.00000000E+00  0.00000000E+00       0.06250
     4)     2.50000000E-01  2.50000000E-01  0.00000000E+00       0.09375
     5)     5.00000000E-01  2.50000000E-01  0.00000000E+00       0.37500
     6)    -2.50000000E-01  2.50000000E-01  0.00000000E+00       0.18750
     7)     5.00000000E-01  5.00000000E-01  0.00000000E+00       0.04688
     8)    -2.50000000E-01  5.00000000E-01  2.50000000E-01       0.09375
 
 Together with 48 symmetry operations and time-reversal symmetry 
 yields    64 points in the full Brillouin Zone.
 
 
 setmesh: FFT mesh size selected  =  20x 20x 20
          total number of points  =     8000
 
 
- screening: taking advantage of time-reversal symmetry 
- Maximum band index for partially occupied states nbvw = 4
- Remaining bands to be divided among processors   nbcw = 96
- Number of bands treated by each node ~2
 
 Number of electrons calculated from density =    8.0000; Expected =    8.0000
 average of density, n =  0.106233
 r_s =    1.3098
 omega_plasma =   31.4402 [eV]
 
 
 calculating chi0 at frequencies [eV] :
  1    0.000000E+00    0.000000E+00
  2    0.000000E+00    1.360569E+01
 
 
--------------------------------------------------------------------------------
  q-point number  1        q = ( 0.000000, 0.000000, 0.000000) [r.l.u.]
--------------------------------------------------------------------------------
  chi0(G,G') at the    1 th omega   0.0000   0.0000 [eV]
       1       2       3       4       5       6       7       8       9
    1  -0.000   0.000  -0.000  -0.000   0.000   0.000  -0.000  -0.000   0.000
       -0.000   0.000   0.000  -0.000  -0.000   0.000   0.000  -0.000  -0.000
 
    2   0.000  -8.837   0.000  -1.668   0.000  -1.668   0.000  -1.668  -0.000
       -0.000  -0.000  -2.889   0.000  -1.252   0.000  -1.252  -0.000  -1.252
 
  chi0(G,G') at the    2 th omega   0.0000  13.6057 [eV]
       1       2       3       4       5       6       7       8       9
    1  -0.000   0.000  -0.000  -0.000   0.000   0.000  -0.000  -0.000   0.000
        0.000   0.000   0.000  -0.000  -0.000   0.000   0.000  -0.000  -0.000
 
    2   0.000  -6.654   0.000  -0.934   0.000  -0.934   0.000  -0.934  -0.000
       -0.000  -0.000  -1.607   0.000  -0.609   0.000  -0.609  -0.000  -0.609
 
 For q-point:  0.000010 0.000020 0.000030
  dielectric constant =   6.9500
  dielectric constant without local fields =   7.4511
 
  Average fulfillment of the sum rule on Im[epsilon] for q-point    1 :     95.56  [%]
  Heads and wings of the symmetrical epsilon^-1(G,G') 
 
   Upper and lower wings at the    1 th omega   0.0000   0.0000 [eV]
       1       2       3       4       5       6       7       8       9
      0.144   0.006  -0.006  -0.018   0.018   0.018  -0.018  -0.006   0.006
     -0.000   0.006   0.006  -0.018  -0.018   0.018   0.018  -0.006  -0.006
       1       2       3       4       5       6       7       8       9
      0.144   0.006  -0.006  -0.018   0.018   0.018  -0.018  -0.006   0.006
     -0.000  -0.006  -0.006   0.018   0.018  -0.018  -0.018   0.006   0.006
 
 
   Upper and lower wings at the    2 th omega   0.0000  13.6057 [eV]
       1       2       3       4       5       6       7       8       9
      0.302   0.007  -0.007  -0.020   0.020   0.020  -0.020  -0.007   0.007
      0.000   0.007   0.007  -0.020  -0.020   0.020   0.020  -0.007  -0.007
       1       2       3       4       5       6       7       8       9
      0.302   0.007  -0.007  -0.020   0.020   0.020  -0.020  -0.007   0.007
      0.000  -0.007  -0.007   0.020   0.020  -0.020  -0.020   0.007   0.007
 
 
 
 
--------------------------------------------------------------------------------
  q-point number  2        q = ( 0.250000, 0.000000, 0.000000) [r.l.u.]
--------------------------------------------------------------------------------
  chi0(G,G') at the    1 th omega   0.0000   0.0000 [eV]
       1       2       3       4       5       6       7       8       9
    1  -3.059  -0.727   0.603  -0.501  -0.705  -0.501  -0.705  -0.501  -0.705
       -0.000  -0.727  -0.603  -0.501   0.705  -0.501   0.705  -0.501   0.705
 
    2  -0.727  -8.641  -0.000  -1.579  -0.000  -1.579   0.000  -1.579   0.000
        0.727  -0.000  -2.564  -0.000  -0.936  -0.000  -0.936   0.000  -0.936
 
  chi0(G,G') at the    2 th omega   0.0000  13.6057 [eV]
       1       2       3       4       5       6       7       8       9
    1  -1.637  -0.459   0.341  -0.217  -0.387  -0.217  -0.387  -0.217  -0.387
       -0.000  -0.459  -0.341  -0.217   0.387  -0.217   0.387  -0.217   0.387
 
    2  -0.459  -6.692   0.000  -0.885  -0.000  -0.885   0.000  -0.885   0.000
        0.459   0.000  -1.486  -0.000  -0.492  -0.000  -0.492   0.000  -0.492
 
  Average fulfillment of the sum rule on Im[epsilon] for q-point    2 :     98.23  [%]
 
 
--------------------------------------------------------------------------------
  q-point number  3        q = ( 0.500000, 0.000000, 0.000000) [r.l.u.]
--------------------------------------------------------------------------------
  chi0(G,G') at the    1 th omega   0.0000   0.0000 [eV]
       1       2       3       4       5       6       7       8       9
    1  -6.239  -1.023   0.724  -1.308  -1.076  -1.308  -1.076  -1.308  -1.076
        0.000  -1.023  -0.724  -1.308   1.076  -1.308   1.076  -1.308   1.076
 
    2  -1.023  -7.479  -0.000  -0.991   0.000  -0.991   0.000  -0.991  -0.000
        1.023   0.000  -2.087  -0.000  -0.553  -0.000  -0.553   0.000  -0.553
 
  chi0(G,G') at the    2 th omega   0.0000  13.6057 [eV]
       1       2       3       4       5       6       7       8       9
    1  -4.171  -0.742   0.438  -0.759  -0.751  -0.759  -0.751  -0.759  -0.751
        0.000  -0.742  -0.438  -0.759   0.751  -0.759   0.751  -0.759   0.751
 
    2  -0.742  -6.053  -0.000  -0.632   0.000  -0.632   0.000  -0.632  -0.000
        0.742   0.000  -1.180  -0.000  -0.345  -0.000  -0.345   0.000  -0.345
 
  Average fulfillment of the sum rule on Im[epsilon] for q-point    3 :     97.29  [%]
 
 
--------------------------------------------------------------------------------
  q-point number  4        q = ( 0.250000, 0.250000, 0.000000) [r.l.u.]
--------------------------------------------------------------------------------
  chi0(G,G') at the    1 th omega   0.0000   0.0000 [eV]
       1       2       3       4       5       6       7       8       9
    1  -3.984  -0.940  -0.294  -0.294  -0.940  -0.294  -0.940  -0.940  -0.294
       -0.000  -0.940   0.294  -0.294   0.940  -0.294   0.940  -0.940   0.294
 
    2  -0.940  -8.754   0.000  -1.536  -0.000  -1.536  -0.000  -1.602  -0.000
        0.940  -0.000  -2.128   0.000  -0.787   0.000  -0.787  -0.000  -0.856
 
  chi0(G,G') at the    2 th omega   0.0000  13.6057 [eV]
       1       2       3       4       5       6       7       8       9
    1  -2.133  -0.525  -0.115  -0.115  -0.525  -0.115  -0.525  -0.525  -0.115
       -0.000  -0.525   0.115  -0.115   0.525  -0.115   0.525  -0.525   0.115
 
    2  -0.525  -6.749   0.000  -0.910  -0.000  -0.910  -0.000  -0.867  -0.000
        0.525  -0.000  -1.294   0.000  -0.443   0.000  -0.443  -0.000  -0.453
 
  Average fulfillment of the sum rule on Im[epsilon] for q-point    4 :     98.00  [%]
 
 
--------------------------------------------------------------------------------
  q-point number  5        q = ( 0.500000, 0.250000, 0.000000) [r.l.u.]
--------------------------------------------------------------------------------
  chi0(G,G') at the    1 th omega   0.0000   0.0000 [eV]
       1       2       3       4       5       6       7       8       9
    1  -6.711  -1.140  -0.152  -1.040  -1.244  -1.040  -1.244  -1.431  -1.036
        0.000  -1.140   0.152  -1.040   1.244  -1.040   1.244  -1.431   1.036
 
    2  -1.140  -7.794   0.000  -1.105  -0.000  -1.105   0.000  -1.104  -0.000
        1.140  -0.000  -1.841  -0.000  -0.533  -0.000  -0.533   0.000  -0.536
 
  chi0(G,G') at the    2 th omega   0.0000  13.6057 [eV]
       1       2       3       4       5       6       7       8       9
    1  -4.173  -0.768  -0.003  -0.559  -0.796  -0.559  -0.796  -0.857  -0.674
       -0.000  -0.768   0.003  -0.559   0.796  -0.559   0.796  -0.857   0.674
 
    2  -0.768  -6.254   0.000  -0.703  -0.000  -0.703   0.000  -0.664  -0.000
        0.768  -0.000  -1.095  -0.000  -0.340  -0.000  -0.340   0.000  -0.323
 
  Average fulfillment of the sum rule on Im[epsilon] for q-point    5 :     97.23  [%]
 
 
--------------------------------------------------------------------------------
  q-point number  6        q = (-0.250000, 0.250000, 0.000000) [r.l.u.]
--------------------------------------------------------------------------------
  chi0(G,G') at the    1 th omega   0.0000   0.0000 [eV]
       1       2       3       4       5       6       7       8       9
    1  -5.704  -0.195  -1.024  -1.146  -1.146  -1.146  -1.146  -1.024  -0.195
       -0.000  -0.195   1.024  -1.146   1.146  -1.146   1.146  -1.024   0.195
 
    2  -0.195  -8.261   0.000  -1.241  -0.000  -1.241  -0.000  -1.216  -0.000
        0.195  -0.000  -2.017   0.000  -0.560   0.000  -0.560   0.000  -0.947
 
  chi0(G,G') at the    2 th omega   0.0000  13.6057 [eV]
       1       2       3       4       5       6       7       8       9
    1  -3.413  -0.032  -0.681  -0.657  -0.657  -0.657  -0.657  -0.681  -0.032
       -0.000  -0.032   0.681  -0.657   0.657  -0.657   0.657  -0.681   0.032
 
    2  -0.032  -5.797   0.000  -0.832  -0.000  -0.832  -0.000  -0.750  -0.000
        0.032   0.000  -1.199   0.000  -0.325   0.000  -0.325   0.000  -0.443
 
  Average fulfillment of the sum rule on Im[epsilon] for q-point    6 :     97.41  [%]
 
 
--------------------------------------------------------------------------------
  q-point number  7        q = ( 0.500000, 0.500000, 0.000000) [r.l.u.]
--------------------------------------------------------------------------------
  chi0(G,G') at the    1 th omega   0.0000   0.0000 [eV]
       1       2       3       4       5       6       7       8       9
    1  -7.927  -1.399  -1.108  -1.108  -1.399  -1.108  -1.399  -1.399  -1.108
        0.000  -1.399   1.108  -1.108   1.399  -1.108   1.399  -1.399   1.108
 
    2  -1.399  -7.777   0.000  -1.090  -0.000  -1.090  -0.000  -0.924  -0.000
        1.399   0.000  -1.221   0.000  -0.351   0.000  -0.351  -0.000  -0.319
 
  chi0(G,G') at the    2 th omega   0.0000  13.6057 [eV]
       1       2       3       4       5       6       7       8       9
    1  -5.173  -0.928  -0.669  -0.669  -0.928  -0.669  -0.928  -0.928  -0.669
        0.000  -0.928   0.669  -0.669   0.928  -0.669   0.928  -0.928   0.669
 
    2  -0.928  -6.284   0.000  -0.738  -0.000  -0.738  -0.000  -0.566  -0.000
        0.928  -0.000  -0.753   0.000  -0.255   0.000  -0.255  -0.000  -0.202
 
  Average fulfillment of the sum rule on Im[epsilon] for q-point    7 :     97.15  [%]
 
 
--------------------------------------------------------------------------------
  q-point number  8        q = (-0.250000, 0.500000, 0.250000) [r.l.u.]
--------------------------------------------------------------------------------
  chi0(G,G') at the    1 th omega   0.0000   0.0000 [eV]
       1       2       3       4       5       6       7       8       9
    1  -8.303  -1.032  -1.215  -1.580  -1.475  -1.475  -1.580  -1.215  -1.032
        0.000  -1.032   1.215  -1.580   1.475  -1.475   1.580  -1.215   1.032
 
    2  -1.032  -8.303   0.000  -1.350  -0.000  -0.989  -0.000  -0.855  -0.000
        1.032   0.000  -1.338   0.000   0.000   0.000  -0.131   0.000  -0.000
 
  chi0(G,G') at the    2 th omega   0.0000  13.6057 [eV]
       1       2       3       4       5       6       7       8       9
    1  -5.571  -0.533  -0.884  -1.035  -0.962  -0.962  -1.035  -0.884  -0.533
       -0.000  -0.533   0.884  -1.035   0.962  -0.962   1.035  -0.884   0.533
 
    2  -0.533  -5.571   0.000  -0.870  -0.000  -0.740  -0.000  -0.528  -0.000
        0.533   0.000  -0.750   0.000   0.000   0.000  -0.116   0.000   0.000
 
  Average fulfillment of the sum rule on Im[epsilon] for q-point    8 :     97.13  [%]
 
================================================================================
== DATASET  3 ==================================================================
-   nproc =   40   -> not optimal: autoparal keyword recommended in input file
 
 mkfilename : getwfk/=0, take file _WFK from output of DATASET   1.
 
 mkfilename : getscr/=0, take file _SCR from output of DATASET   2.
 
 Exchange-correlation functional for the present dataset will be:
  LDA: Perdew-Zunger-Ceperley-Alder - ixc=2
 Citation for XC functional:
  J.P.Perdew and A.Zunger, PRB 23, 5048 (1981)
 
 SIGMA: Calculation of the GW corrections 
 
 Based on a program developped by R.W. Godby, V. Olevano, G. Onida, and L. Reining.
 Incorporated in ABINIT by V. Olevano, G.-M. Rignanese, and M. Torrent.
.Using single precision arithmetic ; gwpc =  4
 
 Real(R)+Recip(G) space primitive vectors, cartesian coordinates (Bohr,Bohr^-1):
 R(1)=  0.0000000  3.3517128  3.3517128  G(1)= -0.1491775  0.1491775  0.1491775
 R(2)=  3.3517128  0.0000000  3.3517128  G(2)=  0.1491775 -0.1491775  0.1491775
 R(3)=  3.3517128  3.3517128  0.0000000  G(3)=  0.1491775  0.1491775 -0.1491775
 Unit cell volume ucvol=  7.5306137E+01 bohr^3
 Angles (23,13,12)=  6.00000000E+01  6.00000000E+01  6.00000000E+01 degrees
--------------------------------------------------------------------------------
 
 ==== K-mesh for the wavefunctions ====
 Number of points in the irreducible wedge :     8
 Reduced coordinates and weights : 
 
     1)     0.00000000E+00  0.00000000E+00  0.00000000E+00       0.01563
     2)     2.50000000E-01  0.00000000E+00  0.00000000E+00       0.12500
     3)     5.00000000E-01  0.00000000E+00  0.00000000E+00       0.06250
     4)     2.50000000E-01  2.50000000E-01  0.00000000E+00       0.09375
     5)     5.00000000E-01  2.50000000E-01  0.00000000E+00       0.37500
     6)    -2.50000000E-01  2.50000000E-01  0.00000000E+00       0.18750
     7)     5.00000000E-01  5.00000000E-01  0.00000000E+00       0.04688
     8)    -2.50000000E-01  5.00000000E-01  2.50000000E-01       0.09375
 
 Together with 48 symmetry operations and time-reversal symmetry 
 yields    64 points in the full Brillouin Zone.
 
 
 ==== Q-mesh for screening function ====
 Number of points in the irreducible wedge :     8
 Reduced coordinates and weights : 
 
     1)     0.00000000E+00  0.00000000E+00  0.00000000E+00       0.01563
     2)     2.50000000E-01  0.00000000E+00  0.00000000E+00       0.12500
     3)     5.00000000E-01  0.00000000E+00  0.00000000E+00       0.06250
     4)     2.50000000E-01  2.50000000E-01  0.00000000E+00       0.09375
     5)     5.00000000E-01  2.50000000E-01  0.00000000E+00       0.37500
     6)    -2.50000000E-01  2.50000000E-01  0.00000000E+00       0.18750
     7)     5.00000000E-01  5.00000000E-01  0.00000000E+00       0.04688
     8)    -2.50000000E-01  5.00000000E-01  2.50000000E-01       0.09375
 
 Together with 48 symmetry operations and time-reversal symmetry 
 yields    64 points in the full Brillouin Zone.
 
 
 setmesh: FFT mesh size selected  =  24x 24x 24
          total number of points  =    13824
 
 Number of electrons calculated from density =    8.0000; Expected =    8.0000
 average of density, n =  0.106233
 r_s =    1.3098
 omega_plasma =   31.4402 [eV]
 
 
 === KS Band Gaps ===
  >>>> For spin  1
   Minimum optical gap =   5.5963 [eV], located at k-point      :   0.0000  0.0000  0.0000
   Fundamental gap     =   4.4839 [eV], Top of valence bands at :   0.0000  0.0000  0.0000
                                        Bottom of conduction at :   0.2500  0.2500  0.0000
 SIGMA fundamental parameters:
 PLASMON POLE MODEL  2
 number of plane-waves for SigmaX                  609
 number of plane-waves for SigmaC and W             65
 number of plane-waves for wavefunctions           609
 number of bands                                   100
 number of independent spin polarizations            1
 number of spinorial components                      1
 number of k-points in IBZ                           8
 number of q-points in IBZ                           8
 number of symmetry operations                      48
 number of k-points in BZ                           64
 number of q-points in BZ                           64
 number of frequencies for dSigma/dE                 9
 frequency step for dSigma/dE [eV]                0.25
 number of omega for Sigma on real axis              0
 max omega for Sigma on real axis  [eV]           0.00
 zcut for avoiding poles [eV]                     0.10
 
 EPSILON^-1 parameters (SCR file):
 dimension of the eps^-1 matrix on file             65
 dimension of the eps^-1 matrix used                65
 number of plane-waves for wavefunctions           609
 number of bands                                   100
 number of q-points in IBZ                           8
 number of frequencies                               2
 number of real frequencies                          1
 number of imag frequencies                          1
 
 matrix elements of self-energy operator (all in [eV])
 
 Perturbative Calculation
 
 k =    0.000   0.000   0.000
 Band     E0 <VxcLDA>   SigX SigC(E0)      Z dSigC/dE  Sig(E)    E-E0       E
    1  -8.173 -14.890 -25.332   7.470   0.868  -0.152 -17.470  -2.580 -10.754
    2  13.327 -16.897 -19.431   1.351   0.849  -0.178 -17.901  -1.004  12.323
    3  13.327 -16.897 -19.431   1.350   0.849  -0.178 -17.901  -1.005  12.323
    4  13.327 -16.897 -19.431   1.351   0.849  -0.178 -17.901  -1.004  12.323
    5  18.924 -15.671  -9.312  -5.390   0.849  -0.177 -14.848   0.823  19.747
    6  18.924 -15.671  -9.312  -5.392   0.849  -0.177 -14.849   0.822  19.745
    7  18.924 -15.671  -9.312  -5.392   0.849  -0.177 -14.849   0.822  19.746
    8  27.101 -16.361  -7.881  -7.938   0.804  -0.244 -15.925   0.436  27.537
 
 E^0_gap          5.596
 E^GW_gap         7.424
 DeltaE^GW_gap    1.827
 
 
 k =    0.250   0.000   0.000
 Band     E0 <VxcLDA>   SigX SigC(E0)      Z dSigC/dE  Sig(E)    E-E0       E
    1  -6.432 -15.011 -24.894   7.056   0.749  -0.334 -17.130  -2.119  -8.552
    2   6.753 -15.820 -20.544   2.922   0.833  -0.200 -17.321  -1.501   5.252
    3  11.566 -16.598 -19.632   1.744   0.846  -0.181 -17.690  -1.092  10.474
    4  11.566 -16.598 -19.632   1.743   0.846  -0.181 -17.691  -1.092  10.474
    5  21.134 -15.825  -8.833  -5.887   0.847  -0.181 -14.890   0.936  22.070
    6  21.134 -15.825  -8.833  -5.888   0.847  -0.181 -14.890   0.935  22.069
    7  21.668 -15.821  -9.075  -6.050   0.845  -0.183 -15.233   0.587  22.255
    8  28.103 -15.758  -6.835  -7.877   0.824  -0.214 -14.896   0.862  28.965
 
 E^0_gap          9.568
 E^GW_gap        11.596
 DeltaE^GW_gap    2.028
 
 
 k =    0.500   0.000   0.000
 Band     E0 <VxcLDA>   SigX SigC(E0)      Z dSigC/dE  Sig(E)    E-E0       E
    1  -2.219 -15.712 -24.534   5.838   0.774  -0.291 -18.023  -2.312  -4.531
    2  -0.161 -14.783 -21.838   4.819   0.799  -0.251 -16.570  -1.787  -1.948
    3  10.505 -16.539 -20.061   2.105   0.844  -0.184 -17.736  -1.197   9.309
    4  10.505 -16.539 -20.061   2.104   0.844  -0.184 -17.736  -1.197   9.308
    5  21.794 -15.319  -8.162  -6.029   0.848  -0.179 -14.362   0.957  22.751
    6  21.794 -15.319  -8.162  -6.030   0.848  -0.179 -14.363   0.956  22.750
    7  22.542 -15.742  -8.890  -6.425   0.841  -0.190 -15.383   0.359  22.901
    8  28.898 -14.194  -5.230  -7.572   0.841  -0.189 -13.023   1.171  30.068
 
 E^0_gap         11.289
 E^GW_gap        13.442
 DeltaE^GW_gap    2.153
 
 
 k =    0.250   0.250   0.000
 Band     E0 <VxcLDA>   SigX SigC(E0)      Z dSigC/dE  Sig(E)    E-E0       E
    1  -5.856 -15.049 -24.742   6.799   0.769  -0.301 -17.274  -2.225  -8.080
    2   8.940 -16.554 -20.907   2.530   0.842  -0.187 -18.089  -1.535   7.405
    3   9.160 -16.133 -19.909   2.318   0.841  -0.188 -17.360  -1.227   7.933
    4   9.160 -16.133 -19.909   2.317   0.841  -0.188 -17.361  -1.228   7.932
    5  17.811 -14.834  -8.936  -5.266   0.854  -0.171 -14.295   0.539  18.350
    6  23.636 -13.747  -6.616  -6.383   0.851  -0.175 -13.110   0.637  24.273
    7  24.953 -16.484  -8.307  -6.802   0.834  -0.199 -15.337   1.147  26.101
    8  24.953 -16.484  -8.307  -6.803   0.834  -0.199 -15.338   1.146  26.099
 
 E^0_gap          8.652
 E^GW_gap        10.418
 DeltaE^GW_gap    1.767
 
 
 k =    0.500   0.250   0.000
 Band     E0 <VxcLDA>   SigX SigC(E0)      Z dSigC/dE  Sig(E)    E-E0       E
    1  -2.045 -15.444 -23.939   5.746   0.802  -0.246 -17.650  -2.206  -4.251
    2   2.564 -15.514 -21.976   4.186   0.819  -0.222 -17.377  -1.863   0.702
    3   6.580 -15.786 -20.577   2.981   0.836  -0.195 -17.300  -1.514   5.065
    4   8.400 -16.114 -20.262   2.586   0.841  -0.189 -17.428  -1.314   7.086
    5  19.432 -14.281  -8.013  -5.605   0.855  -0.169 -13.714   0.568  19.999
    6  24.781 -14.717  -7.063  -6.621   0.842  -0.188 -13.848   0.869  25.651
    7  26.178 -16.216  -7.601  -7.151   0.831  -0.203 -14.999   1.218  27.395
    8  26.798 -16.316  -7.789  -7.350   0.830  -0.205 -15.340   0.977  27.775
 
 E^0_gap         11.032
 E^GW_gap        12.913
 DeltaE^GW_gap    1.882
 
 
 k =   -0.250   0.250   0.000
 Band     E0 <VxcLDA>   SigX SigC(E0)      Z dSigC/dE  Sig(E)    E-E0       E
    1  -3.633 -15.257 -24.240   6.137   0.778  -0.285 -17.471  -2.214  -5.847
    2   4.705 -15.921 -21.775   3.715   0.821  -0.218 -17.677  -1.756   2.950
    3   5.653 -15.418 -20.282   3.079   0.834  -0.199 -16.907  -1.489   4.164
    4  10.288 -16.437 -19.958   2.107   0.845  -0.184 -17.631  -1.194   9.094
    5  21.305 -14.771  -7.997  -5.938   0.851  -0.175 -14.060   0.711  22.016
    6  23.368 -16.027  -8.119  -6.584   0.841  -0.189 -14.914   1.112  24.481
    7  25.757 -16.018  -8.060  -6.822   0.840  -0.190 -15.063   0.955  26.712
    8  27.394 -15.782  -7.032  -7.679   0.831  -0.203 -14.892   0.891  28.285
 
 E^0_gap         11.017
 E^GW_gap        12.922
 DeltaE^GW_gap    1.905
 
 
 k =    0.500   0.500   0.000
 Band     E0 <VxcLDA>   SigX SigC(E0)      Z dSigC/dE  Sig(E)    E-E0       E
    1   0.659 -15.632 -23.139   4.882   0.793  -0.262 -17.712  -2.080  -1.421
    2   0.659 -15.632 -23.139   4.883   0.793  -0.261 -17.712  -2.080  -1.421
    3   6.961 -15.927 -20.581   2.970   0.839  -0.191 -17.341  -1.414   5.548
    4   6.961 -15.927 -20.581   2.969   0.839  -0.191 -17.341  -1.415   5.547
    5  18.115 -13.827  -7.952  -5.400   0.858  -0.165 -13.419   0.408  18.523
    6  18.115 -13.827  -7.952  -5.401   0.858  -0.165 -13.420   0.407  18.522
    7  30.187 -17.052  -6.866  -8.411   0.822  -0.217 -15.593   1.459  31.646
    8  30.187 -17.052  -6.866  -8.412   0.821  -0.218 -15.595   1.457  31.644
 
 E^0_gap         11.153
 E^GW_gap        12.976
 DeltaE^GW_gap    1.823
 
 
 k =   -0.250   0.500   0.250
 Band     E0 <VxcLDA>   SigX SigC(E0)      Z dSigC/dE  Sig(E)    E-E0       E
    1   1.521 -16.006 -23.424   4.750   0.822  -0.217 -18.199  -2.192  -0.672
    2   1.521 -16.006 -23.424   4.749   0.823  -0.216 -18.202  -2.195  -0.675
    3   4.863 -15.075 -20.022   3.215   0.829  -0.206 -16.511  -1.436   3.427
    4   4.863 -15.075 -20.022   3.215   0.829  -0.206 -16.512  -1.437   3.427
    5  23.869 -14.462  -7.168  -6.247   0.854  -0.171 -13.568   0.894  24.763
    6  23.869 -14.462  -7.168  -6.247   0.854  -0.171 -13.568   0.894  24.762
    7  25.835 -16.220  -7.782  -7.275   0.840  -0.191 -15.243   0.977  26.812
    8  25.835 -16.220  -7.782  -7.275   0.840  -0.191 -15.243   0.977  26.812
 
 E^0_gap         19.006
 E^GW_gap        21.336
 DeltaE^GW_gap    2.330
 
 
 New Fermi energy :        5.636216E-01 Ha ,    1.533692E+01 eV
 New Exchange energy :    -3.170119E+00 Ha ,   -8.626333E+01 eV
 
 === QP Band Gaps ===
  >>>> For spin  1
   Minimum optical gap =   7.4237 [eV], located at k-point      :   0.0000  0.0000  0.0000
   Fundamental gap     =   6.0271 [eV], Top of valence bands at :   0.0000  0.0000  0.0000
                                        Bottom of conduction at :   0.2500  0.2500  0.0000
 
== END DATASET(S) ==============================================================
================================================================================
  
 -outvars: echo values of variables after computation  --------
            acell      6.7034255112E+00  6.7034255112E+00  6.7034255112E+00 Bohr
              amu      1.20110000E+01
           diemac      6.00000000E+00
             ecut1     3.00000000E+01 Hartree
             ecut2     2.98706778E+01 Hartree
             ecut3     2.98706778E+01 Hartree
          ecuteps1     0.00000000E+00 Hartree
          ecuteps2     7.02839479E+00 Hartree
          ecuteps3     7.02839479E+00 Hartree
         ecutsigx1     0.00000000E+00 Hartree
         ecutsigx2     0.00000000E+00 Hartree
         ecutsigx3     2.98706778E+01 Hartree
          ecutwfn1     0.00000000E+00 Hartree
          ecutwfn2     2.98706778E+01 Hartree
          ecutwfn3     2.98706778E+01 Hartree
           etotal1    -1.1439414243E+01
           etotal2     0.0000000000E+00
           etotal3     0.0000000000E+00
            fcart1     0.0000000000E+00  0.0000000000E+00  0.0000000000E+00
                       0.0000000000E+00  0.0000000000E+00  0.0000000000E+00
            fcart2     0.0000000000E+00  0.0000000000E+00  0.0000000000E+00
                       0.0000000000E+00  0.0000000000E+00  0.0000000000E+00
            fcart3     0.0000000000E+00  0.0000000000E+00  0.0000000000E+00
                       0.0000000000E+00  0.0000000000E+00  0.0000000000E+00
-          fftalg         112
           getscr1          0
           getscr2          0
           getscr3         -1
           getwfk1          0
           getwfk2         -1
           getwfk3         -2
       gw_qprange1          0
       gw_qprange2          0
       gw_qprange3         -4
         icutcoul           7
             iscf1         12
             iscf2          7
             iscf3          7
           istwfk        1    0    1    0    0    0    1    0
              ixc           2
           jdtset        1    2    3
              kpt      0.00000000E+00  0.00000000E+00  0.00000000E+00
                       2.50000000E-01  0.00000000E+00  0.00000000E+00
                       5.00000000E-01  0.00000000E+00  0.00000000E+00
                       2.50000000E-01  2.50000000E-01  0.00000000E+00
                       5.00000000E-01  2.50000000E-01  0.00000000E+00
                      -2.50000000E-01  2.50000000E-01  0.00000000E+00
                       5.00000000E-01  5.00000000E-01  0.00000000E+00
                      -2.50000000E-01  5.00000000E-01  2.50000000E-01
         kptrlatt        4    0    0      0    4    0      0    0    4
          kptrlen      1.89601505E+01
P           mkmem           1
            natom           2
            nband1        105
            nband2        100
            nband3        100
           nbdbuf1          5
           nbdbuf2          0
           nbdbuf3          0
           ndtset           3
            ngfft          24      24      24
             nkpt           8
           npweps1          0
           npweps2         65
           npweps3         65
          npwsigx1          0
          npwsigx2          0
          npwsigx3        609
           npwwfn1          0
           npwwfn2        609
           npwwfn3        609
            nstep         200
             nsym          48
           ntypat           1
              occ1     2.000000  2.000000  2.000000  2.000000  0.000000  0.000000
                       0.000000  0.000000  0.000000  0.000000  0.000000  0.000000
                       0.000000  0.000000  0.000000  0.000000  0.000000  0.000000
                       0.000000  0.000000  0.000000  0.000000  0.000000  0.000000
                       0.000000  0.000000  0.000000  0.000000  0.000000  0.000000
                       0.000000  0.000000  0.000000  0.000000  0.000000  0.000000
                       0.000000  0.000000  0.000000  0.000000  0.000000  0.000000
                       0.000000  0.000000  0.000000  0.000000  0.000000  0.000000
                       0.000000  0.000000  0.000000  0.000000  0.000000  0.000000
                       0.000000  0.000000  0.000000  0.000000  0.000000  0.000000
                       0.000000  0.000000  0.000000  0.000000  0.000000  0.000000
                       0.000000  0.000000  0.000000  0.000000  0.000000  0.000000
                       0.000000  0.000000  0.000000  0.000000  0.000000  0.000000
                       0.000000  0.000000  0.000000  0.000000  0.000000  0.000000
                       0.000000  0.000000  0.000000  0.000000  0.000000  0.000000
                       0.000000  0.000000  0.000000  0.000000  0.000000  0.000000
                       0.000000  0.000000  0.000000  0.000000  0.000000  0.000000
                       0.000000  0.000000  0.000000
              occ2     2.000000  2.000000  2.000000  2.000000  0.000000  0.000000
                       0.000000  0.000000  0.000000  0.000000  0.000000  0.000000
                       0.000000  0.000000  0.000000  0.000000  0.000000  0.000000
                       0.000000  0.000000  0.000000  0.000000  0.000000  0.000000
                       0.000000  0.000000  0.000000  0.000000  0.000000  0.000000
                       0.000000  0.000000  0.000000  0.000000  0.000000  0.000000
                       0.000000  0.000000  0.000000  0.000000  0.000000  0.000000
                       0.000000  0.000000  0.000000  0.000000  0.000000  0.000000
                       0.000000  0.000000  0.000000  0.000000  0.000000  0.000000
                       0.000000  0.000000  0.000000  0.000000  0.000000  0.000000
                       0.000000  0.000000  0.000000  0.000000  0.000000  0.000000
                       0.000000  0.000000  0.000000  0.000000  0.000000  0.000000
                       0.000000  0.000000  0.000000  0.000000  0.000000  0.000000
                       0.000000  0.000000  0.000000  0.000000  0.000000  0.000000
                       0.000000  0.000000  0.000000  0.000000  0.000000  0.000000
                       0.000000  0.000000  0.000000  0.000000  0.000000  0.000000
                       0.000000  0.000000  0.000000  0.000000
              occ3     2.000000  2.000000  2.000000  2.000000  0.000000  0.000000
                       0.000000  0.000000  0.000000  0.000000  0.000000  0.000000
                       0.000000  0.000000  0.000000  0.000000  0.000000  0.000000
                       0.000000  0.000000  0.000000  0.000000  0.000000  0.000000
                       0.000000  0.000000  0.000000  0.000000  0.000000  0.000000
                       0.000000  0.000000  0.000000  0.000000  0.000000  0.000000
                       0.000000  0.000000  0.000000  0.000000  0.000000  0.000000
                       0.000000  0.000000  0.000000  0.000000  0.000000  0.000000
                       0.000000  0.000000  0.000000  0.000000  0.000000  0.000000
                       0.000000  0.000000  0.000000  0.000000  0.000000  0.000000
                       0.000000  0.000000  0.000000  0.000000  0.000000  0.000000
                       0.000000  0.000000  0.000000  0.000000  0.000000  0.000000
                       0.000000  0.000000  0.000000  0.000000  0.000000  0.000000
                       0.000000  0.000000  0.000000  0.000000  0.000000  0.000000
                       0.000000  0.000000  0.000000  0.000000  0.000000  0.000000
                       0.000000  0.000000  0.000000  0.000000  0.000000  0.000000
                       0.000000  0.000000  0.000000  0.000000
        optdriver1          0
        optdriver2          3
        optdriver3          4
           ppmfrq1     0.00000000E+00 Hartree
           ppmfrq2     5.00000000E-01 Hartree
           ppmfrq3     5.00000000E-01 Hartree
          ppmodel1          1
          ppmodel2          2
          ppmodel3          2
            rprim      0.0000000000E+00  5.0000000000E-01  5.0000000000E-01
                       5.0000000000E-01  0.0000000000E+00  5.0000000000E-01
                       5.0000000000E-01  5.0000000000E-01  0.0000000000E+00
          spgroup         227
           strten1     3.3846831128E-04  3.3846831128E-04  3.3846831128E-04
                       0.0000000000E+00  0.0000000000E+00  0.0000000000E+00
           strten2     0.0000000000E+00  0.0000000000E+00  0.0000000000E+00
                       0.0000000000E+00  0.0000000000E+00  0.0000000000E+00
           strten3     0.0000000000E+00  0.0000000000E+00  0.0000000000E+00
                       0.0000000000E+00  0.0000000000E+00  0.0000000000E+00
           symrel      1  0  0   0  1  0   0  0  1      -1  0  0   0 -1  0   0  0 -1
                       0 -1  1   0 -1  0   1 -1  0       0  1 -1   0  1  0  -1  1  0
                      -1  0  0  -1  0  1  -1  1  0       1  0  0   1  0 -1   1 -1  0
                       0  1 -1   1  0 -1   0  0 -1       0 -1  1  -1  0  1   0  0  1
                      -1  0  0  -1  1  0  -1  0  1       1  0  0   1 -1  0   1  0 -1
                       0 -1  1   1 -1  0   0 -1  0       0  1 -1  -1  1  0   0  1  0
                       1  0  0   0  0  1   0  1  0      -1  0  0   0  0 -1   0 -1  0
                       0  1 -1   0  0 -1   1  0 -1       0 -1  1   0  0  1  -1  0  1
                      -1  0  1  -1  1  0  -1  0  0       1  0 -1   1 -1  0   1  0  0
                       0 -1  0   1 -1  0   0 -1  1       0  1  0  -1  1  0   0  1 -1
                       1  0 -1   0  0 -1   0  1 -1      -1  0  1   0  0  1   0 -1  1
                       0  1  0   0  0  1   1  0  0       0 -1  0   0  0 -1  -1  0  0
                       1  0 -1   0  1 -1   0  0 -1      -1  0  1   0 -1  1   0  0  1
                       0 -1  0   0 -1  1   1 -1  0       0  1  0   0  1 -1  -1  1  0
                      -1  0  1  -1  0  0  -1  1  0       1  0 -1   1  0  0   1 -1  0
                       0  1  0   1  0  0   0  0  1       0 -1  0  -1  0  0   0  0 -1
                       0  0 -1   0  1 -1   1  0 -1       0  0  1   0 -1  1  -1  0  1
                       1 -1  0   0 -1  1   0 -1  0      -1  1  0   0  1 -1   0  1  0
                       0  0  1   1  0  0   0  1  0       0  0 -1  -1  0  0   0 -1  0
                      -1  1  0  -1  0  0  -1  0  1       1 -1  0   1  0  0   1  0 -1
                       0  0  1   0  1  0   1  0  0       0  0 -1   0 -1  0  -1  0  0
                       1 -1  0   0 -1  0   0 -1  1      -1  1  0   0  1  0   0  1 -1
                       0  0 -1   1  0 -1   0  1 -1       0  0  1  -1  0  1   0 -1  1
                      -1  1  0  -1  0  1  -1  0  0       1 -1  0   1  0 -1   1  0  0
            tnons      0.0000000  0.0000000  0.0000000     0.2500000  0.2500000  0.2500000
                       0.0000000  0.0000000  0.0000000     0.2500000  0.2500000  0.2500000
                       0.0000000  0.0000000  0.0000000     0.2500000  0.2500000  0.2500000
                       0.0000000  0.0000000  0.0000000     0.2500000  0.2500000  0.2500000
                       0.0000000  0.0000000  0.0000000     0.2500000  0.2500000  0.2500000
                       0.0000000  0.0000000  0.0000000     0.2500000  0.2500000  0.2500000
                       0.0000000  0.0000000  0.0000000     0.2500000  0.2500000  0.2500000
                       0.0000000  0.0000000  0.0000000     0.2500000  0.2500000  0.2500000
                       0.0000000  0.0000000  0.0000000     0.2500000  0.2500000  0.2500000
                       0.0000000  0.0000000  0.0000000     0.2500000  0.2500000  0.2500000
                       0.0000000  0.0000000  0.0000000     0.2500000  0.2500000  0.2500000
                       0.0000000  0.0000000  0.0000000     0.2500000  0.2500000  0.2500000
                       0.0000000  0.0000000  0.0000000     0.2500000  0.2500000  0.2500000
                       0.0000000  0.0000000  0.0000000     0.2500000  0.2500000  0.2500000
                       0.0000000  0.0000000  0.0000000     0.2500000  0.2500000  0.2500000
                       0.0000000  0.0000000  0.0000000     0.2500000  0.2500000  0.2500000
                       0.0000000  0.0000000  0.0000000     0.2500000  0.2500000  0.2500000
                       0.0000000  0.0000000  0.0000000     0.2500000  0.2500000  0.2500000
                       0.0000000  0.0000000  0.0000000     0.2500000  0.2500000  0.2500000
                       0.0000000  0.0000000  0.0000000     0.2500000  0.2500000  0.2500000
                       0.0000000  0.0000000  0.0000000     0.2500000  0.2500000  0.2500000
                       0.0000000  0.0000000  0.0000000     0.2500000  0.2500000  0.2500000
                       0.0000000  0.0000000  0.0000000     0.2500000  0.2500000  0.2500000
                       0.0000000  0.0000000  0.0000000     0.2500000  0.2500000  0.2500000
           tolvrs1     1.00000000E-20
           tolvrs2     0.00000000E+00
           tolvrs3     0.00000000E+00
            typat      1  1
       usepotzero1          2
       usepotzero2          0
       usepotzero3          0
              wtk        0.01563    0.12500    0.06250    0.09375    0.37500    0.18750
                         0.04688    0.09375
           xangst      0.0000000000E+00  0.0000000000E+00  0.0000000000E+00
                       8.8682500000E-01  8.8682500000E-01  8.8682500000E-01
            xcart      0.0000000000E+00  0.0000000000E+00  0.0000000000E+00
                       1.6758563778E+00  1.6758563778E+00  1.6758563778E+00
             xred      0.0000000000E+00  0.0000000000E+00  0.0000000000E+00
                       2.5000000000E-01  2.5000000000E-01  2.5000000000E-01
            znucl        6.00000
 
================================================================================


- Timing analysis has been suppressed with timopt=0



================================================================================

 Suggested references for the acknowledgment of ABINIT usage.

 The users of ABINIT have little formal obligations with respect to the ABINIT group
 (those specified in the GNU General Public License, http://www.gnu.org/copyleft/gpl.txt).
 However, it is common practice in the scientific literature,
 to acknowledge the efforts of people that have made the research possible.
 In this spirit, please find below suggested citations of work written by ABINIT developers,
 corresponding to implementations inside of ABINIT that you have used in the present run.
 Note also that it will be of great value to readers of publications presenting these results,
 to read papers enabling them to understand the theoretical formalism and details
 of the ABINIT implementation.
 For information on why they are suggested, see also https://www.abinit.org/about/?text=acknowledgments.
-
- [1] Recent developments in the ABINIT software package.
- Computer Phys. Comm. 205, 106 (2016).
- X.Gonze, F.Jollet, F.Abreu Araujo, D.Adams, B.Amadon, T.Applencourt,
- C.Audouze, J.-M.Beuken, J.Bieder, A.Bokhanchuk, E.Bousquet, F.Bruneval
- D.Caliste, M.Cote, F.Dahm, F.Da Pieve, M.Delaveau, M.Di Gennaro,
- B.Dorado, C.Espejo, G.Geneste, L.Genovese, A.Gerossier, M.Giantomassi,
- Y.Gillet, D.R.Hamann, L.He, G.Jomard, J.Laflamme Janssen, S.Le Roux,
- A.Levitt, A.Lherbier, F.Liu, I.Lukacevic, A.Martin, C.Martins,
- M.J.T.Oliveira, S.Ponce, Y.Pouillon, T.Rangel, G.-M.Rignanese,
- A.H.Romero, B.Rousseau, O.Rubel, A.A.Shukri, M.Stankovski, M.Torrent,
- M.J.Van Setten, B.Van Troeye, M.J.Verstraete, D.Waroquier, J.Wiktor,
- B.Xue, A.Zhou, J.W.Zwanziger.
- Comment : the fourth generic paper describing the ABINIT project.
- Note that a version of this paper, that is not formatted for Computer Phys. Comm. 
- is available at https://www.abinit.org/about/ABINIT16.pdf .
- The licence allows the authors to put it on the Web.
-
- [2] Ab initio pseudopotentials for electronic structure calculations of poly-atomic systems, 
- using density-functional theory.
- M. Fuchs, M. Scheffler, Comput. Phys. Commun. 119, 67 (1999).
- Comment : Some pseudopotential generated using the FHI code were used.
-
- [3] ABINIT : First-principles approach of materials and nanosystem properties.
- Computer Phys. Comm. 180, 2582-2615 (2009).
- X. Gonze, B. Amadon, P.-M. Anglade, J.-M. Beuken, F. Bottin, P. Boulanger, F. Bruneval,
- D. Caliste, R. Caracas, M. Cote, T. Deutsch, L. Genovese, Ph. Ghosez, M. Giantomassi
- S. Goedecker, D.R. Hamann, P. Hermet, F. Jollet, G. Jomard, S. Leroux, M. Mancini, S. Mazevet,
- M.J.T. Oliveira, G. Onida, Y. Pouillon, T. Rangel, G.-M. Rignanese, D. Sangalli, R. Shaltaf,
- M. Torrent, M.J. Verstraete, G. Zerah, J.W. Zwanziger
- Comment : the third generic paper describing the ABINIT project.
- Note that a version of this paper, that is not formatted for Computer Phys. Comm. 
- is available at https://www.abinit.org/about/ABINIT_CPC_v10.pdf .
- The licence allows the authors to put it on the Web.
-
- [4] A brief introduction to the ABINIT software package.
- Z. Kristallogr. 220, 558-562 (2005).
- X. Gonze, G.-M. Rignanese, M. Verstraete, J.-M. Beuken, Y. Pouillon, R. Caracas, F. Jollet,
- M. Torrent, G. Zerah, M. Mikami, Ph. Ghosez, M. Veithen, J.-Y. Raty, V. Olevano, F. Bruneval,
- L. Reining, R. Godby, G. Onida, D.R. Hamann, and D.C. Allan.
- Comment : the second generic paper describing the ABINIT project. Note that this paper
- should be cited especially if you are using the GW part of ABINIT, as several authors
- of this part are not in the list of authors of the first or third paper.
- The .pdf of the latter paper is available at https://www.abinit.org/about/zfk_0505-06_558-562.pdf.
- Note that it should not redistributed (Copyright by Oldenburg Wissenshaftverlag,
- the licence allows the authors to put it on the Web).
-
- And optionally:
-
- [5] First-principles computation of material properties : the ABINIT software project. 
- X. Gonze, J.-M. Beuken, R. Caracas, F. Detraux, M. Fuchs, G.-M. Rignanese, L. Sindic,
- M. Verstraete, G. Zerah, F. Jollet, M. Torrent, A. Roy, M. Mikami, Ph. Ghosez, J.-Y. Raty, D.C. Allan.
- Computational Materials Science 25, 478-492 (2002). http://dx.doi.org/10.1016/S0927-0256(02)00325-7
- Comment : the original paper describing the ABINIT project.
-
- Proc.   0 individual time (sec): cpu=         11.5  wall=         11.9
 
================================================================================
 
 Calculation completed.
.Delivered   0 WARNINGs and   0 COMMENTs to log file.
+Overall time at end (sec) : cpu=        470.9  wall=        475.9
