
     Program PWSCF v.6.1 (svn rev. 13369) starts on  3Jan2021 at 23:37:31 

     This program is part of the open-source Quantum ESPRESSO suite
     for quantum simulation of materials; please cite
         "P. Giannozzi et al., J. Phys.:Condens. Matter 21 395502 (2009);
          URL http://www.quantum-espresso.org", 
     in publications or presentations arising from this work. More details at
     http://www.quantum-espresso.org/quote

     Parallel version (MPI & OpenMP), running on      40 processor cores
     Number of MPI processes:                40
     Threads/MPI process:                     1
     R & G space division:  proc/nbgrp/npool/nimage =      40
     Waiting for input...
     Reading input from standard input

     Current dimensions of program PWSCF are:
     Max number of different atomic species (ntypx) = 10
     Max number of k-points (npk) =  40000
     Max angular momentum in pseudopotentials (lmaxx) =  3

     Atomic positions and unit cell read from directory:
     ./c.save/
 

     IMPORTANT: XC functional enforced from input :
     Exchange-correlation      = PZ ( 1  1  0  0 0 0)
     Any further DFT definition will be discarded
     Please, verify this is what you really want

               file C.pz-mt.fhi.UPF: wavefunction(s)  3d renormalized

     Subspace diagonalization in iterative solution of the eigenvalue problem:
     one sub-group per band group will be used
     scalapack distributed-memory algorithm (size of sub-group:  4*  4 procs)

 
     Parallelization info
     --------------------
     sticks:   dense  smooth     PW     G-vecs:    dense   smooth      PW
     Min           9       9      3                  116      116      23
     Max          10      10      4                  120      120      27
     Sum         367     367    121                 4693     4693     941
 


     bravais-lattice index     =            2
     lattice parameter (alat)  =       6.7034  a.u.
     unit-cell volume          =      75.3061 (a.u.)^3
     number of atoms/cell      =            2
     number of atomic types    =            1
     number of electrons       =         8.00
     number of Kohn-Sham states=          100
     kinetic-energy cutoff     =      60.0000  Ry
     charge density cutoff     =     240.0000  Ry
     Exchange-correlation      = PZ ( 1  1  0  0 0 0)

     celldm(1)=   6.703426  celldm(2)=   0.000000  celldm(3)=   0.000000
     celldm(4)=   0.000000  celldm(5)=   0.000000  celldm(6)=   0.000000

     crystal axes: (cart. coord. in units of alat)
               a(1) = (  -0.500000   0.000000   0.500000 )  
               a(2) = (   0.000000   0.500000   0.500000 )  
               a(3) = (  -0.500000   0.500000   0.000000 )  

     reciprocal axes: (cart. coord. in units 2 pi/alat)
               b(1) = ( -1.000000 -1.000000  1.000000 )  
               b(2) = (  1.000000  1.000000  1.000000 )  
               b(3) = ( -1.000000  1.000000 -1.000000 )  


     PseudoPot. # 1 for  C read from file:
     ../C.pz-mt.fhi.UPF
     MD5 check sum: b7c38bc33a0cf75f44be89b84470f298
     Pseudo is Norm-conserving, Zval =  4.0
     Generated using FHI98PP, converted with fhi2upf.x v.5.0.2
     Using radial grid of  461 points,  2 beta functions with: 
                l(1) =   0
                l(2) =   1

     atomic species   valence    mass     pseudopotential
        C              4.00    12.01100      C( 1.00)

     No symmetry found



   Cartesian axes

     site n.     atom                  positions (alat units)
         1           C   tau(   1) = (   0.0000000   0.0000000   0.0000000  )
         2           C   tau(   2) = (  -0.2500000   0.2500000   0.2500000  )

     number of k points=    64
                       cart. coord. in units 2pi/alat
        k(    1) = (   0.0000000   0.0000000   0.0000000), wk =   0.0312500
        k(    2) = (  -0.2500000   0.2500000  -0.2500000), wk =   0.0312500
        k(    3) = (   0.5000000  -0.5000000   0.5000000), wk =   0.0312500
        k(    4) = (   0.2500000  -0.2500000   0.2500000), wk =   0.0312500
        k(    5) = (   0.2500000   0.2500000   0.2500000), wk =   0.0312500
        k(    6) = (   0.0000000   0.5000000   0.0000000), wk =   0.0312500
        k(    7) = (   0.7500000  -0.2500000   0.7500000), wk =   0.0312500
        k(    8) = (   0.5000000   0.0000000   0.5000000), wk =   0.0312500
        k(    9) = (  -0.5000000  -0.5000000  -0.5000000), wk =   0.0312500
        k(   10) = (  -0.7500000  -0.2500000  -0.7500000), wk =   0.0312500
        k(   11) = (   0.0000000  -1.0000000   0.0000000), wk =   0.0312500
        k(   12) = (  -0.2500000  -0.7500000  -0.2500000), wk =   0.0312500
        k(   13) = (  -0.2500000  -0.2500000  -0.2500000), wk =   0.0312500
        k(   14) = (  -0.5000000   0.0000000  -0.5000000), wk =   0.0312500
        k(   15) = (   0.2500000  -0.7500000   0.2500000), wk =   0.0312500
        k(   16) = (   0.0000000  -0.5000000   0.0000000), wk =   0.0312500
        k(   17) = (  -0.2500000  -0.2500000   0.2500000), wk =   0.0312500
        k(   18) = (  -0.5000000   0.0000000   0.0000000), wk =   0.0312500
        k(   19) = (   0.2500000  -0.7500000   0.7500000), wk =   0.0312500
        k(   20) = (   0.0000000  -0.5000000   0.5000000), wk =   0.0312500
        k(   21) = (   0.0000000   0.0000000   0.5000000), wk =   0.0312500
        k(   22) = (  -0.2500000   0.2500000   0.2500000), wk =   0.0312500
        k(   23) = (   0.5000000  -0.5000000   1.0000000), wk =   0.0312500
        k(   24) = (   0.2500000  -0.2500000   0.7500000), wk =   0.0312500
        k(   25) = (  -0.7500000  -0.7500000  -0.2500000), wk =   0.0312500
        k(   26) = (  -1.0000000  -0.5000000  -0.5000000), wk =   0.0312500
        k(   27) = (  -0.2500000  -1.2500000   0.2500000), wk =   0.0312500
        k(   28) = (  -0.5000000  -1.0000000   0.0000000), wk =   0.0312500
        k(   29) = (  -0.5000000  -0.5000000   0.0000000), wk =   0.0312500
        k(   30) = (  -0.7500000  -0.2500000  -0.2500000), wk =   0.0312500
        k(   31) = (   0.0000000  -1.0000000   0.5000000), wk =   0.0312500
        k(   32) = (  -0.2500000  -0.7500000   0.2500000), wk =   0.0312500
        k(   33) = (   0.5000000   0.5000000  -0.5000000), wk =   0.0312500
        k(   34) = (   0.2500000   0.7500000  -0.7500000), wk =   0.0312500
        k(   35) = (   1.0000000   0.0000000   0.0000000), wk =   0.0312500
        k(   36) = (   0.7500000   0.2500000  -0.2500000), wk =   0.0312500
        k(   37) = (   0.7500000   0.7500000  -0.2500000), wk =   0.0312500
        k(   38) = (   0.5000000   1.0000000  -0.5000000), wk =   0.0312500
        k(   39) = (   1.2500000   0.2500000   0.2500000), wk =   0.0312500
        k(   40) = (   1.0000000   0.5000000   0.0000000), wk =   0.0312500
        k(   41) = (   0.0000000   0.0000000  -1.0000000), wk =   0.0312500
        k(   42) = (  -0.2500000   0.2500000  -1.2500000), wk =   0.0312500
        k(   43) = (   0.5000000  -0.5000000  -0.5000000), wk =   0.0312500
        k(   44) = (   0.2500000  -0.2500000  -0.7500000), wk =   0.0312500
        k(   45) = (   0.2500000   0.2500000  -0.7500000), wk =   0.0312500
        k(   46) = (   0.0000000   0.5000000  -1.0000000), wk =   0.0312500
        k(   47) = (   0.7500000  -0.2500000  -0.2500000), wk =   0.0312500
        k(   48) = (   0.5000000   0.0000000  -0.5000000), wk =   0.0312500
        k(   49) = (   0.2500000   0.2500000  -0.2500000), wk =   0.0312500
        k(   50) = (   0.0000000   0.5000000  -0.5000000), wk =   0.0312500
        k(   51) = (   0.7500000  -0.2500000   0.2500000), wk =   0.0312500
        k(   52) = (   0.5000000   0.0000000   0.0000000), wk =   0.0312500
        k(   53) = (   0.5000000   0.5000000   0.0000000), wk =   0.0312500
        k(   54) = (   0.2500000   0.7500000  -0.2500000), wk =   0.0312500
        k(   55) = (   1.0000000   0.0000000   0.5000000), wk =   0.0312500
        k(   56) = (   0.7500000   0.2500000   0.2500000), wk =   0.0312500
        k(   57) = (  -0.2500000  -0.2500000  -0.7500000), wk =   0.0312500
        k(   58) = (  -0.5000000   0.0000000  -1.0000000), wk =   0.0312500
        k(   59) = (   0.2500000  -0.7500000  -0.2500000), wk =   0.0312500
        k(   60) = (   0.0000000  -0.5000000  -0.5000000), wk =   0.0312500
        k(   61) = (   0.0000000   0.0000000  -0.5000000), wk =   0.0312500
        k(   62) = (  -0.2500000   0.2500000  -0.7500000), wk =   0.0312500
        k(   63) = (   0.5000000  -0.5000000   0.0000000), wk =   0.0312500
        k(   64) = (   0.2500000  -0.2500000  -0.2500000), wk =   0.0312500

     Dense  grid:     4693 G-vectors     FFT dimensions: (  24,  24,  24)

     Estimated max dynamical RAM per process >       1.84MB

     Estimated total allocated dynamical RAM >      73.79MB

     The potential is recalculated from file :
     ./c.save/charge-density.dat

     Starting wfc are   18 randomized atomic wfcs +   82 random wfc

     Band Structure Calculation
     Davidson diagonalization with overlap

     ethr =  1.25E-08,  avg # of iterations =  8.5

     total cpu time spent up to now is       31.9 secs

     End of band structure calculation

          k = 0.0000 0.0000 0.0000 (   609 PWs)   bands (ev):

    -8.1733  13.3272  13.3272  13.3272  18.9235  18.9235  18.9235  27.1009
    32.4720  40.2163  40.2163  40.8786  40.8786  40.8786  47.8223  61.0101
    61.0101  61.0101  81.3867  81.3867  81.3867  85.8220  85.8220  88.6711
    88.6711  88.6711  94.1683  94.1683  94.1683  96.5352 113.1778 113.1778
   113.1778 119.0131 119.0131 119.2634 119.2634 119.2634 119.2842 119.2842
   123.7490 123.7490 123.7490 123.9996 124.9728 124.9728 124.9728 126.0786
   126.0786 126.0786 127.7080 135.3520 135.3520 135.3520 136.1055 136.1055
   136.1055 137.9143 139.9924 176.0518 176.0518 176.0518 180.0047 180.0047
   183.5975 188.6998 188.6998 188.6998 198.1792 198.1792 198.1792 206.0640
   208.2777 208.2777 210.7336 210.7336 210.7336 211.1835 211.1835 211.1835
   211.6403 213.2963 213.2963 213.2963 217.4156 217.4156 217.4156 217.7492
   217.7492 225.6617 225.6617 225.6617 225.8282 225.8282 229.2066 231.1425
   231.1425 231.1425 231.5235 231.5235

          k =-0.2500 0.2500-0.2500 (   589 PWs)   bands (ev):

    -6.4322   6.7527  11.5660  11.5660  21.1339  21.1339  21.6680  28.1028
    33.9002  35.8540  35.8540  38.7102  52.6293  52.6293  56.3246  56.3246
    56.8356  57.9852  73.1487  73.1487  82.3400  83.9771  83.9771  89.2518
    89.2518  90.6742  90.7805  94.5054  96.9098  96.9098 105.2043 106.3672
   106.3672 109.6476 109.6476 110.1840 111.2508 112.7644 112.7644 120.4731
   120.8807 120.8807 123.5083 130.5879 130.5879 130.9651 132.9804 132.9804
   136.0331 141.2349 141.2349 143.3789 145.5651 150.3007 150.3007 150.8272
   154.8732 154.8732 157.3870 157.3870 160.6214 164.1048 170.6368 170.6368
   171.8247 178.8268 178.8268 180.7526 191.1503 191.1503 197.1816 198.2883
   198.2883 198.8355 199.5463 199.5463 202.0853 202.0853 204.5292 205.6272
   207.0902 207.0902 209.3309 211.5634 211.5634 214.1235 218.8905 218.8905
   219.5296 220.2163 222.6350 223.6382 223.6382 227.9654 227.9654 228.7649
   231.3358 231.3358 235.7913 238.8199

          k = 0.5000-0.5000 0.5000 (   580 PWs)   bands (ev):

    -2.2193  -0.1609  10.5053  10.5053  21.7942  21.7942  22.5422  28.8977
    35.0942  37.4679  39.3800  39.3800  47.6866  47.6866  59.2147  67.2171
    67.2171  69.1981  71.0032  71.0032  73.6236  73.6236  76.8573  78.6948
    87.5747  87.5747  90.1072  90.1072  94.4555  96.4092  97.3110  99.2427
    99.2427 101.9537 111.1929 111.1929 117.1418 118.0324 118.0324 120.0761
   123.6784 128.7633 137.2991 137.2991 138.8299 138.8299 141.1888 141.1888
   142.5758 142.5758 144.2935 147.2236 148.8777 150.9390 150.9390 155.8886
   155.8886 164.1095 164.1095 164.6419 165.4127 165.4127 169.8796 170.3100
   170.8302 172.1885 172.2940 172.2940 173.0320 173.0320 178.2041 181.7993
   190.2378 190.2378 190.8423 190.8423 196.0530 196.0530 202.6562 202.6562
   203.3836 207.8736 210.7522 210.7522 213.1033 213.5491 215.1652 218.0439
   218.0439 219.5484 226.6255 226.6255 229.2363 231.8336 232.3489 232.3489
   235.4618 235.4618 236.3933 236.3933

          k = 0.2500-0.2500 0.2500 (   589 PWs)   bands (ev):

    -6.4322   6.7527  11.5660  11.5660  21.1339  21.1339  21.6680  28.1028
    33.9002  35.8540  35.8540  38.7102  52.6293  52.6293  56.3246  56.3246
    56.8356  57.9852  73.1487  73.1487  82.3400  83.9771  83.9771  89.2518
    89.2518  90.6742  90.7805  94.5054  96.9098  96.9098 105.2043 106.3672
   106.3672 109.6476 109.6476 110.1840 111.2508 112.7644 112.7644 120.4731
   120.8807 120.8807 123.5083 130.5879 130.5879 130.9651 132.9804 132.9804
   136.0331 141.2349 141.2349 143.3789 145.5651 150.3007 150.3007 150.8272
   154.8732 154.8732 157.3870 157.3870 160.6214 164.1048 170.6368 170.6368
   171.8247 178.8268 178.8268 180.7526 191.1503 191.1503 197.1816 198.2883
   198.2883 198.8355 199.5463 199.5463 202.0853 202.0853 204.5292 205.6272
   207.0902 207.0902 209.3309 211.5634 211.5634 214.1235 218.8905 218.8905
   219.5296 220.2163 222.6350 223.6382 223.6382 227.9654 227.9654 228.7649
   231.3358 231.3358 235.7913 238.8199

          k = 0.2500 0.2500 0.2500 (   589 PWs)   bands (ev):

    -6.4322   6.7527  11.5660  11.5660  21.1339  21.1339  21.6680  28.1028
    33.9002  35.8540  35.8540  38.7102  52.6293  52.6293  56.3246  56.3246
    56.8356  57.9852  73.1487  73.1487  82.3400  83.9771  83.9771  89.2518
    89.2518  90.6742  90.7805  94.5054  96.9098  96.9098 105.2043 106.3672
   106.3672 109.6476 109.6476 110.1840 111.2508 112.7644 112.7644 120.4731
   120.8807 120.8807 123.5083 130.5879 130.5879 130.9651 132.9804 132.9804
   136.0331 141.2349 141.2349 143.3789 145.5651 150.3007 150.3007 150.8272
   154.8732 154.8732 157.3870 157.3870 160.6214 164.1048 170.6368 170.6368
   171.8247 178.8268 178.8268 180.7526 191.1503 191.1503 197.1816 198.2883
   198.2883 198.8355 199.5463 199.5463 202.0853 202.0853 204.5292 205.6272
   207.0902 207.0902 209.3309 211.5634 211.5634 214.1235 218.8905 218.8905
   219.5296 220.2163 222.6350 223.6382 223.6382 227.9654 227.9654 228.7649
   231.3358 231.3358 235.7913 238.8199

          k = 0.0000 0.5000 0.0000 (   592 PWs)   bands (ev):

    -5.8556   8.9396   9.1595   9.1595  17.8112  23.6360  24.9533  24.9533
    33.6032  35.3692  43.1725  46.0215  46.0215  48.9931  54.5903  54.5903
    59.1255  64.3573  66.7385  78.4673  78.4673  82.2923  83.0106  83.0106
    84.9298  86.5817  92.8522  97.7733  97.7733 103.5621 106.4247 106.5054
   106.5054 108.4014 110.5058 112.6523 113.4790 113.4790 115.9810 118.1122
   118.1122 118.8352 121.7688 126.7839 126.7839 132.4346 133.2878 137.2462
   137.4280 137.4280 138.1397 138.4262 147.2791 154.6241 155.5342 155.5342
   161.2960 164.6494 164.6494 164.7958 165.6756 165.6756 168.7848 176.1324
   176.1324 177.1418 177.1628 181.7457 184.4637 184.4637 185.3271 185.5356
   186.3124 189.7629 189.7629 192.5625 199.0241 199.0241 203.1460 203.7756
   206.6672 206.6672 207.9872 208.9507 215.2233 215.2233 219.5884 220.0778
   222.5810 227.5494 227.5494 230.1838 230.3735 230.6692 231.9410 231.9410
   234.0037 236.4997 236.7762 236.7762

          k = 0.7500-0.2500 0.7500 (   598 PWs)   bands (ev):

    -2.0449   2.5644   6.5797   8.3998  19.4317  24.7814  26.1778  26.7980
    33.5829  36.9256  41.0128  44.3297  49.7732  55.0728  57.6990  59.6309
    64.5811  64.7763  65.8850  71.5359  72.9214  75.5272  76.9596  80.9064
    82.6179  86.8687  88.4124  91.4060  93.7274  93.9742 100.6819 102.3599
   105.8208 105.9584 109.7744 113.6266 115.0646 120.5329 122.6495 122.7211
   124.4749 125.7431 130.2636 130.6030 133.4710 135.1887 137.5112 139.2037
   140.6452 142.0956 147.2832 148.8382 151.0433 155.6145 156.9924 159.3759
   160.7356 162.0718 164.5654 164.5827 166.0895 168.2040 170.5613 170.9828
   171.7412 173.8652 174.8182 176.9943 178.2735 180.4235 182.5880 183.0568
   186.1711 187.5853 189.7533 190.6499 192.2954 195.8601 199.1218 201.9734
   202.3626 203.2787 206.5604 207.6006 208.0373 210.4111 211.8457 213.0452
   213.8694 218.0347 218.3650 221.6541 223.4403 224.3701 227.0830 231.6269
   231.8982 232.2087 234.3938 234.5191

          k = 0.5000 0.0000 0.5000 (   590 PWs)   bands (ev):

    -3.6330   4.7054   5.6534  10.2881  21.3051  23.3680  25.7574  27.3943
    32.8645  34.1781  38.0615  46.5986  49.3848  55.0813  56.0002  56.1540
    64.9149  68.6163  68.7694  69.4228  74.0715  77.9369  79.2827  81.0846
    82.5559  85.5733  90.8741  93.1108  94.3237  97.7615 102.4788 103.5474
   104.2433 105.8127 106.9772 112.0748 112.9966 114.6826 116.4572 123.4333
   125.9061 126.6624 131.3316 133.0674 135.4236 136.7233 137.7405 140.2574
   141.4930 142.3526 146.2748 148.5850 149.8814 150.2303 151.7280 152.6064
   154.5484 159.9431 163.1823 163.6155 164.3648 169.1289 171.4092 171.5424
   171.8023 175.4355 176.2753 180.9145 181.0051 182.5779 183.0832 186.7536
   186.7783 188.6036 190.0398 195.4456 195.8861 196.3172 196.9928 201.0390
   202.3458 203.6642 205.8673 208.6758 209.9616 210.7488 212.9965 213.2119
   214.5841 216.2439 219.4206 223.2730 223.3519 230.5193 231.4532 233.1433
   233.2899 237.1634 237.4116 240.0946

          k =-0.5000-0.5000-0.5000 (   580 PWs)   bands (ev):

    -2.2193  -0.1609  10.5053  10.5053  21.7942  21.7942  22.5422  28.8977
    35.0942  37.4679  39.3800  39.3800  47.6866  47.6866  59.2147  67.2171
    67.2171  69.1981  71.0032  71.0032  73.6236  73.6236  76.8573  78.6948
    87.5747  87.5747  90.1072  90.1072  94.4555  96.4092  97.3110  99.2427
    99.2427 101.9537 111.1929 111.1929 117.1418 118.0324 118.0324 120.0761
   123.6784 128.7633 137.2991 137.2991 138.8299 138.8299 141.1888 141.1888
   142.5758 142.5758 144.2935 147.2236 148.8777 150.9390 150.9390 155.8886
   155.8886 164.1095 164.1095 164.6419 165.4127 165.4127 169.8796 170.3100
   170.8302 172.1885 172.2940 172.2940 173.0320 173.0320 178.2041 181.7993
   190.2378 190.2378 190.8423 190.8423 196.0530 196.0530 202.6562 202.6562
   203.3836 207.8736 210.7522 210.7522 213.1033 213.5491 215.1652 218.0439
   218.0439 219.5484 226.6255 226.6255 229.2363 231.8336 232.3489 232.3489
   235.4618 235.4618 236.3933 236.3933

          k =-0.7500-0.2500-0.7500 (   598 PWs)   bands (ev):

    -2.0449   2.5644   6.5797   8.3998  19.4317  24.7814  26.1778  26.7980
    33.5829  36.9256  41.0128  44.3297  49.7732  55.0728  57.6990  59.6309
    64.5811  64.7763  65.8850  71.5359  72.9214  75.5272  76.9596  80.9064
    82.6179  86.8687  88.4124  91.4060  93.7274  93.9742 100.6819 102.3599
   105.8208 105.9584 109.7744 113.6266 115.0646 120.5329 122.6495 122.7211
   124.4749 125.7431 130.2636 130.6030 133.4710 135.1887 137.5112 139.2037
   140.6452 142.0956 147.2832 148.8382 151.0433 155.6145 156.9924 159.3759
   160.7356 162.0718 164.5654 164.5827 166.0895 168.2040 170.5613 170.9828
   171.7412 173.8652 174.8182 176.9943 178.2735 180.4235 182.5880 183.0568
   186.1711 187.5853 189.7533 190.6499 192.2954 195.8601 199.1218 201.9734
   202.3626 203.2787 206.5604 207.6006 208.0373 210.4111 211.8457 213.0452
   213.8694 218.0347 218.3650 221.6541 223.4403 224.3701 227.0830 231.6269
   231.8982 232.2087 234.3938 234.5191

          k = 0.0000-1.0000 0.0000 (   588 PWs)   bands (ev):

     0.6592   0.6592   6.9613   6.9613  18.1146  18.1146  30.1869  30.1869
    36.5374  36.5374  45.8361  45.8361  52.0297  52.0297  62.2195  62.2195
    62.2403  62.2403  63.5968  63.5968  66.0905  66.0905  83.3637  83.3637
    86.3387  86.3387  90.6677  90.6677  96.7845  96.7845 103.8520 103.8520
   109.7040 109.7040 109.7258 109.7258 111.6846 111.6846 113.3980 113.3980
   126.7540 126.7540 132.5907 132.5907 136.9955 136.9955 144.6234 144.6234
   148.3753 148.3753 150.6193 150.6193 154.5946 154.5946 157.6297 157.6297
   157.6592 157.6592 158.9022 158.9022 160.3716 160.3716 160.9145 160.9145
   183.7434 183.7434 184.8692 184.8692 188.5663 188.5663 189.8269 189.8269
   190.7789 190.7789 192.6173 192.6173 192.9496 192.9496 194.8281 194.8281
   200.2345 200.2345 200.3623 200.3623 202.9913 202.9913 205.2566 205.2566
   208.4455 208.4455 208.5657 208.5657 223.5372 223.5372 231.1365 231.1365
   234.8900 234.8900 236.1474 236.1474

          k =-0.2500-0.7500-0.2500 (   598 PWs)   bands (ev):

    -2.0449   2.5644   6.5797   8.3998  19.4317  24.7814  26.1778  26.7980
    33.5829  36.9256  41.0128  44.3297  49.7732  55.0728  57.6990  59.6309
    64.5811  64.7763  65.8850  71.5359  72.9214  75.5272  76.9596  80.9064
    82.6179  86.8687  88.4124  91.4060  93.7274  93.9742 100.6819 102.3599
   105.8208 105.9584 109.7744 113.6266 115.0646 120.5329 122.6495 122.7211
   124.4749 125.7431 130.2636 130.6030 133.4710 135.1887 137.5112 139.2037
   140.6452 142.0956 147.2832 148.8382 151.0433 155.6145 156.9924 159.3759
   160.7356 162.0718 164.5654 164.5827 166.0895 168.2040 170.5613 170.9828
   171.7412 173.8652 174.8182 176.9943 178.2735 180.4235 182.5880 183.0568
   186.1711 187.5853 189.7533 190.6499 192.2954 195.8601 199.1218 201.9734
   202.3626 203.2787 206.5604 207.6006 208.0373 210.4111 211.8457 213.0452
   213.8694 218.0347 218.3650 221.6541 223.4403 224.3701 227.0830 231.6269
   231.8982 232.2087 234.3938 234.5191

          k =-0.2500-0.2500-0.2500 (   589 PWs)   bands (ev):

    -6.4322   6.7527  11.5660  11.5660  21.1339  21.1339  21.6680  28.1028
    33.9002  35.8540  35.8540  38.7102  52.6293  52.6293  56.3246  56.3246
    56.8356  57.9852  73.1487  73.1487  82.3400  83.9771  83.9771  89.2518
    89.2518  90.6742  90.7805  94.5054  96.9098  96.9098 105.2043 106.3672
   106.3672 109.6476 109.6476 110.1840 111.2508 112.7644 112.7644 120.4731
   120.8807 120.8807 123.5083 130.5879 130.5879 130.9651 132.9804 132.9804
   136.0331 141.2349 141.2349 143.3789 145.5651 150.3007 150.3007 150.8272
   154.8732 154.8732 157.3870 157.3870 160.6214 164.1048 170.6368 170.6368
   171.8247 178.8268 178.8268 180.7526 191.1503 191.1503 197.1816 198.2883
   198.2883 198.8355 199.5463 199.5463 202.0853 202.0853 204.5292 205.6272
   207.0902 207.0902 209.3309 211.5634 211.5634 214.1235 218.8905 218.8905
   219.5296 220.2163 222.6350 223.6382 223.6382 227.9654 227.9654 228.7649
   231.3358 231.3358 235.7913 238.8199

          k =-0.5000 0.0000-0.5000 (   590 PWs)   bands (ev):

    -3.6330   4.7054   5.6534  10.2881  21.3051  23.3680  25.7574  27.3943
    32.8645  34.1781  38.0615  46.5986  49.3848  55.0813  56.0002  56.1540
    64.9149  68.6163  68.7694  69.4228  74.0715  77.9369  79.2827  81.0846
    82.5559  85.5733  90.8741  93.1108  94.3237  97.7615 102.4788 103.5474
   104.2433 105.8127 106.9772 112.0748 112.9966 114.6826 116.4572 123.4333
   125.9061 126.6624 131.3316 133.0674 135.4236 136.7233 137.7405 140.2574
   141.4930 142.3526 146.2748 148.5850 149.8814 150.2303 151.7280 152.6064
   154.5484 159.9431 163.1823 163.6155 164.3648 169.1289 171.4092 171.5424
   171.8023 175.4355 176.2753 180.9145 181.0051 182.5779 183.0832 186.7536
   186.7783 188.6036 190.0398 195.4456 195.8861 196.3172 196.9928 201.0390
   202.3458 203.6642 205.8673 208.6758 209.9616 210.7488 212.9965 213.2119
   214.5841 216.2439 219.4206 223.2730 223.3519 230.5193 231.4532 233.1433
   233.2899 237.1634 237.4116 240.0946

          k = 0.2500-0.7500 0.2500 (   598 PWs)   bands (ev):

    -2.0449   2.5644   6.5797   8.3998  19.4317  24.7814  26.1778  26.7980
    33.5829  36.9256  41.0128  44.3297  49.7732  55.0728  57.6990  59.6309
    64.5811  64.7763  65.8850  71.5359  72.9214  75.5272  76.9596  80.9064
    82.6179  86.8687  88.4124  91.4060  93.7274  93.9742 100.6819 102.3599
   105.8208 105.9584 109.7744 113.6266 115.0646 120.5329 122.6495 122.7211
   124.4749 125.7431 130.2636 130.6030 133.4710 135.1887 137.5112 139.2037
   140.6452 142.0956 147.2832 148.8382 151.0433 155.6145 156.9924 159.3759
   160.7356 162.0718 164.5654 164.5827 166.0895 168.2040 170.5613 170.9828
   171.7412 173.8652 174.8182 176.9943 178.2735 180.4235 182.5880 183.0568
   186.1711 187.5853 189.7533 190.6499 192.2954 195.8601 199.1218 201.9734
   202.3626 203.2787 206.5604 207.6006 208.0373 210.4111 211.8457 213.0452
   213.8694 218.0347 218.3650 221.6541 223.4403 224.3701 227.0830 231.6269
   231.8982 232.2087 234.3938 234.5191

          k = 0.0000-0.5000 0.0000 (   592 PWs)   bands (ev):

    -5.8556   8.9396   9.1595   9.1595  17.8112  23.6360  24.9533  24.9533
    33.6032  35.3692  43.1725  46.0215  46.0215  48.9931  54.5903  54.5903
    59.1255  64.3573  66.7385  78.4673  78.4673  82.2923  83.0106  83.0106
    84.9298  86.5817  92.8522  97.7733  97.7733 103.5621 106.4247 106.5054
   106.5054 108.4014 110.5058 112.6523 113.4790 113.4790 115.9810 118.1122
   118.1122 118.8352 121.7688 126.7839 126.7839 132.4346 133.2878 137.2462
   137.4280 137.4280 138.1397 138.4262 147.2791 154.6241 155.5342 155.5342
   161.2960 164.6494 164.6494 164.7958 165.6756 165.6756 168.7848 176.1324
   176.1324 177.1418 177.1628 181.7457 184.4637 184.4637 185.3271 185.5356
   186.3124 189.7629 189.7629 192.5625 199.0241 199.0241 203.1460 203.7756
   206.6672 206.6672 207.9872 208.9507 215.2233 215.2233 219.5884 220.0778
   222.5810 227.5494 227.5494 230.1838 230.3735 230.6692 231.9410 231.9410
   234.0037 236.4997 236.7762 236.7762

          k =-0.2500-0.2500 0.2500 (   589 PWs)   bands (ev):

    -6.4322   6.7527  11.5660  11.5660  21.1339  21.1339  21.6680  28.1028
    33.9002  35.8540  35.8540  38.7102  52.6293  52.6293  56.3246  56.3246
    56.8356  57.9852  73.1487  73.1487  82.3400  83.9771  83.9771  89.2518
    89.2518  90.6742  90.7805  94.5054  96.9098  96.9098 105.2043 106.3672
   106.3672 109.6476 109.6476 110.1840 111.2508 112.7644 112.7644 120.4731
   120.8807 120.8807 123.5083 130.5879 130.5879 130.9651 132.9804 132.9804
   136.0331 141.2349 141.2349 143.3789 145.5651 150.3007 150.3007 150.8272
   154.8732 154.8732 157.3870 157.3870 160.6214 164.1048 170.6368 170.6368
   171.8247 178.8268 178.8268 180.7526 191.1503 191.1503 197.1816 198.2883
   198.2883 198.8355 199.5463 199.5463 202.0853 202.0853 204.5292 205.6272
   207.0902 207.0902 209.3309 211.5634 211.5634 214.1235 218.8905 218.8905
   219.5296 220.2163 222.6350 223.6382 223.6382 227.9654 227.9654 228.7649
   231.3358 231.3358 235.7913 238.8199

          k =-0.5000 0.0000 0.0000 (   592 PWs)   bands (ev):

    -5.8556   8.9396   9.1595   9.1595  17.8112  23.6360  24.9533  24.9533
    33.6032  35.3692  43.1725  46.0215  46.0215  48.9931  54.5903  54.5903
    59.1255  64.3573  66.7385  78.4673  78.4673  82.2923  83.0106  83.0106
    84.9298  86.5817  92.8522  97.7733  97.7733 103.5621 106.4247 106.5054
   106.5054 108.4014 110.5058 112.6523 113.4790 113.4790 115.9810 118.1122
   118.1122 118.8352 121.7688 126.7839 126.7839 132.4346 133.2878 137.2462
   137.4280 137.4280 138.1397 138.4262 147.2791 154.6241 155.5342 155.5342
   161.2960 164.6494 164.6494 164.7958 165.6756 165.6756 168.7848 176.1324
   176.1324 177.1418 177.1628 181.7457 184.4637 184.4637 185.3271 185.5356
   186.3124 189.7629 189.7629 192.5625 199.0241 199.0241 203.1460 203.7756
   206.6672 206.6672 207.9872 208.9507 215.2233 215.2233 219.5884 220.0778
   222.5810 227.5494 227.5494 230.1838 230.3735 230.6692 231.9410 231.9410
   234.0037 236.4997 236.7762 236.7762

          k = 0.2500-0.7500 0.7500 (   598 PWs)   bands (ev):

    -2.0449   2.5644   6.5797   8.3998  19.4317  24.7814  26.1778  26.7980
    33.5829  36.9256  41.0128  44.3297  49.7732  55.0728  57.6990  59.6309
    64.5811  64.7763  65.8850  71.5359  72.9214  75.5272  76.9596  80.9064
    82.6179  86.8687  88.4124  91.4060  93.7274  93.9742 100.6819 102.3599
   105.8208 105.9584 109.7744 113.6266 115.0646 120.5329 122.6495 122.7211
   124.4749 125.7431 130.2636 130.6030 133.4710 135.1887 137.5112 139.2037
   140.6452 142.0956 147.2832 148.8382 151.0433 155.6145 156.9924 159.3759
   160.7356 162.0718 164.5654 164.5827 166.0895 168.2040 170.5613 170.9828
   171.7412 173.8652 174.8182 176.9943 178.2735 180.4235 182.5880 183.0568
   186.1711 187.5853 189.7533 190.6499 192.2954 195.8601 199.1218 201.9734
   202.3626 203.2787 206.5604 207.6006 208.0373 210.4111 211.8457 213.0452
   213.8694 218.0347 218.3650 221.6541 223.4403 224.3701 227.0830 231.6269
   231.8982 232.2087 234.3938 234.5191

          k = 0.0000-0.5000 0.5000 (   590 PWs)   bands (ev):

    -3.6330   4.7054   5.6534  10.2881  21.3051  23.3680  25.7574  27.3943
    32.8645  34.1781  38.0615  46.5986  49.3848  55.0813  56.0002  56.1540
    64.9149  68.6163  68.7694  69.4228  74.0715  77.9369  79.2827  81.0846
    82.5559  85.5733  90.8741  93.1108  94.3237  97.7615 102.4788 103.5474
   104.2433 105.8127 106.9772 112.0748 112.9966 114.6826 116.4572 123.4333
   125.9061 126.6624 131.3316 133.0674 135.4236 136.7233 137.7405 140.2574
   141.4930 142.3526 146.2748 148.5850 149.8814 150.2303 151.7280 152.6064
   154.5484 159.9431 163.1823 163.6155 164.3648 169.1289 171.4092 171.5424
   171.8023 175.4355 176.2753 180.9145 181.0051 182.5779 183.0832 186.7536
   186.7783 188.6036 190.0398 195.4456 195.8861 196.3172 196.9928 201.0390
   202.3458 203.6642 205.8673 208.6758 209.9616 210.7488 212.9965 213.2119
   214.5841 216.2439 219.4206 223.2730 223.3519 230.5193 231.4532 233.1433
   233.2899 237.1634 237.4116 240.0946

          k = 0.0000 0.0000 0.5000 (   592 PWs)   bands (ev):

    -5.8556   8.9396   9.1595   9.1595  17.8112  23.6360  24.9533  24.9533
    33.6032  35.3692  43.1725  46.0215  46.0215  48.9931  54.5903  54.5903
    59.1255  64.3573  66.7385  78.4673  78.4673  82.2923  83.0106  83.0106
    84.9298  86.5817  92.8522  97.7733  97.7733 103.5621 106.4247 106.5054
   106.5054 108.4014 110.5058 112.6523 113.4790 113.4790 115.9810 118.1122
   118.1122 118.8352 121.7688 126.7839 126.7839 132.4346 133.2878 137.2462
   137.4280 137.4280 138.1397 138.4262 147.2791 154.6241 155.5342 155.5342
   161.2960 164.6494 164.6494 164.7958 165.6756 165.6756 168.7848 176.1324
   176.1324 177.1418 177.1628 181.7457 184.4637 184.4637 185.3271 185.5356
   186.3124 189.7629 189.7629 192.5625 199.0241 199.0241 203.1460 203.7756
   206.6672 206.6672 207.9872 208.9507 215.2233 215.2233 219.5884 220.0778
   222.5810 227.5494 227.5494 230.1838 230.3735 230.6692 231.9410 231.9410
   234.0037 236.4997 236.7762 236.7762

          k =-0.2500 0.2500 0.2500 (   589 PWs)   bands (ev):

    -6.4322   6.7527  11.5660  11.5660  21.1339  21.1339  21.6680  28.1028
    33.9002  35.8540  35.8540  38.7102  52.6293  52.6293  56.3246  56.3246
    56.8356  57.9852  73.1487  73.1487  82.3400  83.9771  83.9771  89.2518
    89.2518  90.6742  90.7805  94.5054  96.9098  96.9098 105.2043 106.3672
   106.3672 109.6476 109.6476 110.1840 111.2508 112.7644 112.7644 120.4731
   120.8807 120.8807 123.5083 130.5879 130.5879 130.9651 132.9804 132.9804
   136.0331 141.2349 141.2349 143.3789 145.5651 150.3007 150.3007 150.8272
   154.8732 154.8732 157.3870 157.3870 160.6214 164.1048 170.6368 170.6368
   171.8247 178.8268 178.8268 180.7526 191.1503 191.1503 197.1816 198.2883
   198.2883 198.8355 199.5463 199.5463 202.0853 202.0853 204.5292 205.6272
   207.0902 207.0902 209.3309 211.5634 211.5634 214.1235 218.8905 218.8905
   219.5296 220.2163 222.6350 223.6382 223.6382 227.9654 227.9654 228.7649
   231.3358 231.3358 235.7913 238.8199

          k = 0.5000-0.5000 1.0000 (   590 PWs)   bands (ev):

    -3.6330   4.7054   5.6534  10.2881  21.3051  23.3680  25.7574  27.3943
    32.8645  34.1781  38.0615  46.5986  49.3848  55.0813  56.0002  56.1540
    64.9149  68.6163  68.7694  69.4228  74.0715  77.9369  79.2827  81.0846
    82.5559  85.5733  90.8741  93.1108  94.3237  97.7615 102.4788 103.5474
   104.2433 105.8127 106.9772 112.0748 112.9966 114.6826 116.4572 123.4333
   125.9061 126.6624 131.3316 133.0674 135.4236 136.7233 137.7405 140.2574
   141.4930 142.3526 146.2748 148.5850 149.8814 150.2303 151.7280 152.6064
   154.5484 159.9431 163.1823 163.6155 164.3648 169.1289 171.4092 171.5424
   171.8023 175.4355 176.2753 180.9145 181.0051 182.5779 183.0832 186.7536
   186.7783 188.6036 190.0398 195.4456 195.8861 196.3172 196.9928 201.0390
   202.3458 203.6642 205.8673 208.6758 209.9616 210.7488 212.9965 213.2119
   214.5841 216.2439 219.4206 223.2730 223.3519 230.5193 231.4532 233.1433
   233.2899 237.1634 237.4116 240.0946

          k = 0.2500-0.2500 0.7500 (   598 PWs)   bands (ev):

    -2.0449   2.5644   6.5797   8.3998  19.4317  24.7814  26.1778  26.7980
    33.5829  36.9256  41.0128  44.3297  49.7732  55.0728  57.6990  59.6309
    64.5811  64.7763  65.8850  71.5359  72.9214  75.5272  76.9596  80.9064
    82.6179  86.8687  88.4124  91.4060  93.7274  93.9742 100.6819 102.3599
   105.8208 105.9584 109.7744 113.6266 115.0646 120.5329 122.6495 122.7211
   124.4749 125.7431 130.2636 130.6030 133.4710 135.1887 137.5112 139.2037
   140.6452 142.0956 147.2832 148.8382 151.0433 155.6145 156.9924 159.3759
   160.7356 162.0718 164.5654 164.5827 166.0895 168.2040 170.5613 170.9828
   171.7412 173.8652 174.8182 176.9943 178.2735 180.4235 182.5880 183.0568
   186.1711 187.5853 189.7533 190.6499 192.2954 195.8601 199.1218 201.9734
   202.3626 203.2787 206.5604 207.6006 208.0373 210.4111 211.8457 213.0452
   213.8694 218.0347 218.3650 221.6541 223.4403 224.3701 227.0830 231.6269
   231.8982 232.2087 234.3938 234.5191

          k =-0.7500-0.7500-0.2500 (   598 PWs)   bands (ev):

    -2.0449   2.5644   6.5797   8.3998  19.4317  24.7814  26.1778  26.7980
    33.5829  36.9256  41.0128  44.3297  49.7732  55.0728  57.6990  59.6309
    64.5811  64.7763  65.8850  71.5359  72.9214  75.5272  76.9596  80.9064
    82.6179  86.8687  88.4124  91.4060  93.7274  93.9742 100.6819 102.3599
   105.8208 105.9584 109.7744 113.6266 115.0646 120.5329 122.6495 122.7211
   124.4749 125.7431 130.2636 130.6030 133.4710 135.1887 137.5112 139.2037
   140.6452 142.0956 147.2832 148.8382 151.0433 155.6145 156.9924 159.3759
   160.7356 162.0718 164.5654 164.5827 166.0895 168.2040 170.5613 170.9828
   171.7412 173.8652 174.8182 176.9943 178.2735 180.4235 182.5880 183.0568
   186.1711 187.5853 189.7533 190.6499 192.2954 195.8601 199.1218 201.9734
   202.3626 203.2787 206.5604 207.6006 208.0373 210.4111 211.8457 213.0452
   213.8694 218.0347 218.3650 221.6541 223.4403 224.3701 227.0830 231.6269
   231.8982 232.2087 234.3938 234.5191

          k =-1.0000-0.5000-0.5000 (   590 PWs)   bands (ev):

    -3.6330   4.7054   5.6534  10.2881  21.3051  23.3680  25.7574  27.3943
    32.8645  34.1781  38.0615  46.5986  49.3848  55.0813  56.0002  56.1540
    64.9149  68.6163  68.7694  69.4228  74.0715  77.9369  79.2827  81.0846
    82.5559  85.5733  90.8741  93.1108  94.3237  97.7615 102.4788 103.5474
   104.2433 105.8127 106.9772 112.0748 112.9966 114.6826 116.4572 123.4333
   125.9061 126.6624 131.3316 133.0674 135.4236 136.7233 137.7405 140.2574
   141.4930 142.3526 146.2748 148.5850 149.8814 150.2303 151.7280 152.6064
   154.5484 159.9431 163.1823 163.6155 164.3648 169.1289 171.4092 171.5424
   171.8023 175.4355 176.2753 180.9145 181.0051 182.5779 183.0832 186.7536
   186.7783 188.6036 190.0398 195.4456 195.8861 196.3172 196.9928 201.0390
   202.3458 203.6642 205.8673 208.6758 209.9616 210.7488 212.9965 213.2119
   214.5841 216.2439 219.4206 223.2730 223.3519 230.5193 231.4532 233.1433
   233.2899 237.1634 237.4116 240.0946

          k =-0.2500-1.2500 0.2500 (   598 PWs)   bands (ev):

    -2.0449   2.5644   6.5797   8.3998  19.4317  24.7814  26.1778  26.7980
    33.5829  36.9256  41.0128  44.3297  49.7732  55.0728  57.6990  59.6309
    64.5811  64.7763  65.8850  71.5359  72.9214  75.5272  76.9596  80.9064
    82.6179  86.8687  88.4124  91.4060  93.7274  93.9742 100.6819 102.3599
   105.8208 105.9584 109.7744 113.6266 115.0646 120.5329 122.6495 122.7211
   124.4749 125.7431 130.2636 130.6030 133.4710 135.1887 137.5112 139.2037
   140.6452 142.0956 147.2832 148.8382 151.0433 155.6145 156.9924 159.3759
   160.7356 162.0718 164.5654 164.5827 166.0895 168.2040 170.5613 170.9828
   171.7412 173.8652 174.8182 176.9943 178.2735 180.4235 182.5880 183.0568
   186.1711 187.5853 189.7533 190.6499 192.2954 195.8601 199.1218 201.9734
   202.3626 203.2787 206.5604 207.6006 208.0373 210.4111 211.8457 213.0452
   213.8694 218.0347 218.3650 221.6541 223.4403 224.3701 227.0830 231.6269
   231.8982 232.2087 234.3938 234.5191

          k =-0.5000-1.0000 0.0000 (   604 PWs)   bands (ev):

     1.5206   1.5206   4.8631   4.8631  23.8687  23.8687  25.8350  25.8350
    34.6503  34.6503  43.8871  43.8871  56.7145  56.7145  58.8612  58.8612
    61.7549  61.7549  69.4316  69.4316  70.8921  70.8921  81.5728  81.5728
    81.7681  81.7681  83.1125  83.1125  98.7179  98.7179 100.2867 100.2867
   107.8545 107.8545 112.2960 112.2960 113.9804 113.9804 126.8567 126.8567
   128.6366 128.6366 130.1358 130.1358 136.8952 136.8952 138.3598 138.3598
   145.8907 145.8907 147.0393 147.0393 149.1254 149.1254 153.5370 153.5370
   164.2464 164.2464 164.4390 164.4390 168.3688 168.3688 169.4778 169.4778
   170.4182 170.4182 173.0877 173.0877 185.0841 185.0841 191.3602 191.3602
   193.7669 193.7669 194.7178 194.7178 195.4579 195.4579 195.4973 195.4973
   195.9715 195.9715 198.2326 198.2326 211.4993 211.4993 212.4285 212.4285
   214.3827 214.3827 215.1046 215.1046 222.9722 222.9722 223.1461 223.1461
   224.5715 224.5715 225.5040 225.5040

          k =-0.5000-0.5000 0.0000 (   590 PWs)   bands (ev):

    -3.6330   4.7054   5.6534  10.2881  21.3051  23.3680  25.7574  27.3943
    32.8645  34.1781  38.0615  46.5986  49.3848  55.0813  56.0002  56.1540
    64.9149  68.6163  68.7694  69.4228  74.0715  77.9369  79.2827  81.0846
    82.5559  85.5733  90.8741  93.1108  94.3237  97.7615 102.4788 103.5474
   104.2433 105.8127 106.9772 112.0748 112.9966 114.6826 116.4572 123.4333
   125.9061 126.6624 131.3316 133.0674 135.4236 136.7233 137.7405 140.2574
   141.4930 142.3526 146.2748 148.5850 149.8814 150.2303 151.7280 152.6064
   154.5484 159.9431 163.1823 163.6155 164.3648 169.1289 171.4092 171.5424
   171.8023 175.4355 176.2753 180.9145 181.0051 182.5779 183.0832 186.7536
   186.7783 188.6036 190.0398 195.4456 195.8861 196.3172 196.9928 201.0390
   202.3458 203.6642 205.8673 208.6758 209.9616 210.7488 212.9965 213.2119
   214.5841 216.2439 219.4206 223.2730 223.3519 230.5193 231.4532 233.1433
   233.2899 237.1634 237.4116 240.0946

          k =-0.7500-0.2500-0.2500 (   598 PWs)   bands (ev):

    -2.0449   2.5644   6.5797   8.3998  19.4317  24.7814  26.1778  26.7980
    33.5829  36.9256  41.0128  44.3297  49.7732  55.0728  57.6990  59.6309
    64.5811  64.7763  65.8850  71.5359  72.9214  75.5272  76.9596  80.9064
    82.6179  86.8687  88.4124  91.4060  93.7274  93.9742 100.6819 102.3599
   105.8208 105.9584 109.7744 113.6266 115.0646 120.5329 122.6495 122.7211
   124.4749 125.7431 130.2636 130.6030 133.4710 135.1887 137.5112 139.2037
   140.6452 142.0956 147.2832 148.8382 151.0433 155.6145 156.9924 159.3759
   160.7356 162.0718 164.5654 164.5827 166.0895 168.2040 170.5613 170.9828
   171.7412 173.8652 174.8182 176.9943 178.2735 180.4235 182.5880 183.0568
   186.1711 187.5853 189.7533 190.6499 192.2954 195.8601 199.1218 201.9734
   202.3626 203.2787 206.5604 207.6006 208.0373 210.4111 211.8457 213.0452
   213.8694 218.0347 218.3650 221.6541 223.4403 224.3701 227.0830 231.6269
   231.8982 232.2087 234.3938 234.5191

          k = 0.0000-1.0000 0.5000 (   604 PWs)   bands (ev):

     1.5206   1.5206   4.8631   4.8631  23.8687  23.8687  25.8350  25.8350
    34.6503  34.6503  43.8871  43.8871  56.7145  56.7145  58.8612  58.8612
    61.7549  61.7549  69.4316  69.4316  70.8921  70.8921  81.5728  81.5728
    81.7681  81.7681  83.1125  83.1125  98.7179  98.7179 100.2867 100.2867
   107.8545 107.8545 112.2960 112.2960 113.9804 113.9804 126.8567 126.8567
   128.6366 128.6366 130.1358 130.1358 136.8952 136.8952 138.3598 138.3598
   145.8907 145.8907 147.0393 147.0393 149.1254 149.1254 153.5370 153.5370
   164.2464 164.2464 164.4390 164.4390 168.3688 168.3688 169.4778 169.4778
   170.4182 170.4182 173.0877 173.0877 185.0841 185.0841 191.3602 191.3602
   193.7669 193.7669 194.7178 194.7178 195.4579 195.4579 195.4973 195.4973
   195.9715 195.9715 198.2326 198.2326 211.4993 211.4993 212.4285 212.4285
   214.3827 214.3827 215.1046 215.1046 222.9722 222.9722 223.1461 223.1461
   224.5715 224.5715 225.5040 225.5040

          k =-0.2500-0.7500 0.2500 (   598 PWs)   bands (ev):

    -2.0449   2.5644   6.5797   8.3998  19.4317  24.7814  26.1778  26.7980
    33.5829  36.9256  41.0128  44.3297  49.7732  55.0728  57.6990  59.6309
    64.5811  64.7763  65.8850  71.5359  72.9214  75.5272  76.9596  80.9064
    82.6179  86.8687  88.4124  91.4060  93.7274  93.9742 100.6819 102.3599
   105.8208 105.9584 109.7744 113.6266 115.0646 120.5329 122.6495 122.7211
   124.4749 125.7431 130.2636 130.6030 133.4710 135.1887 137.5112 139.2037
   140.6452 142.0956 147.2832 148.8382 151.0433 155.6145 156.9924 159.3759
   160.7356 162.0718 164.5654 164.5827 166.0895 168.2040 170.5613 170.9828
   171.7412 173.8652 174.8182 176.9943 178.2735 180.4235 182.5880 183.0568
   186.1711 187.5853 189.7533 190.6499 192.2954 195.8601 199.1218 201.9734
   202.3626 203.2787 206.5604 207.6006 208.0373 210.4111 211.8457 213.0452
   213.8694 218.0347 218.3650 221.6541 223.4403 224.3701 227.0830 231.6269
   231.8982 232.2087 234.3938 234.5191

          k = 0.5000 0.5000-0.5000 (   580 PWs)   bands (ev):

    -2.2193  -0.1609  10.5053  10.5053  21.7942  21.7942  22.5422  28.8977
    35.0942  37.4679  39.3800  39.3800  47.6866  47.6866  59.2147  67.2171
    67.2171  69.1981  71.0032  71.0032  73.6236  73.6236  76.8573  78.6948
    87.5747  87.5747  90.1072  90.1072  94.4555  96.4092  97.3110  99.2427
    99.2427 101.9537 111.1929 111.1929 117.1418 118.0324 118.0324 120.0761
   123.6784 128.7633 137.2991 137.2991 138.8299 138.8299 141.1888 141.1888
   142.5758 142.5758 144.2935 147.2236 148.8777 150.9390 150.9390 155.8886
   155.8886 164.1095 164.1095 164.6419 165.4127 165.4127 169.8796 170.3100
   170.8302 172.1885 172.2940 172.2940 173.0320 173.0320 178.2041 181.7993
   190.2378 190.2378 190.8423 190.8423 196.0530 196.0530 202.6562 202.6562
   203.3836 207.8736 210.7522 210.7522 213.1033 213.5491 215.1652 218.0439
   218.0439 219.5484 226.6255 226.6255 229.2363 231.8336 232.3489 232.3489
   235.4618 235.4618 236.3933 236.3933

          k = 0.2500 0.7500-0.7500 (   598 PWs)   bands (ev):

    -2.0449   2.5644   6.5797   8.3998  19.4317  24.7814  26.1778  26.7980
    33.5829  36.9256  41.0128  44.3297  49.7732  55.0728  57.6990  59.6309
    64.5811  64.7763  65.8850  71.5359  72.9214  75.5272  76.9596  80.9064
    82.6179  86.8687  88.4124  91.4060  93.7274  93.9742 100.6819 102.3599
   105.8208 105.9584 109.7744 113.6266 115.0646 120.5329 122.6495 122.7211
   124.4749 125.7431 130.2636 130.6030 133.4710 135.1887 137.5112 139.2037
   140.6452 142.0956 147.2832 148.8382 151.0433 155.6145 156.9924 159.3759
   160.7356 162.0718 164.5654 164.5827 166.0895 168.2040 170.5613 170.9828
   171.7412 173.8652 174.8182 176.9943 178.2735 180.4235 182.5880 183.0568
   186.1711 187.5853 189.7533 190.6499 192.2954 195.8601 199.1218 201.9734
   202.3626 203.2787 206.5604 207.6006 208.0373 210.4111 211.8457 213.0452
   213.8694 218.0347 218.3650 221.6541 223.4403 224.3701 227.0830 231.6269
   231.8982 232.2087 234.3938 234.5191

          k = 1.0000 0.0000 0.0000 (   588 PWs)   bands (ev):

     0.6592   0.6592   6.9613   6.9613  18.1146  18.1146  30.1869  30.1869
    36.5374  36.5374  45.8361  45.8361  52.0297  52.0297  62.2195  62.2195
    62.2403  62.2403  63.5968  63.5968  66.0905  66.0905  83.3637  83.3637
    86.3387  86.3387  90.6677  90.6677  96.7845  96.7845 103.8520 103.8520
   109.7040 109.7040 109.7258 109.7258 111.6846 111.6846 113.3980 113.3980
   126.7540 126.7540 132.5907 132.5907 136.9955 136.9955 144.6234 144.6234
   148.3753 148.3753 150.6193 150.6193 154.5946 154.5946 157.6297 157.6297
   157.6592 157.6592 158.9022 158.9022 160.3716 160.3716 160.9145 160.9145
   183.7434 183.7434 184.8692 184.8692 188.5663 188.5663 189.8269 189.8269
   190.7789 190.7789 192.6173 192.6173 192.9496 192.9496 194.8281 194.8281
   200.2345 200.2345 200.3623 200.3623 202.9913 202.9913 205.2566 205.2566
   208.4455 208.4455 208.5657 208.5657 223.5372 223.5372 231.1365 231.1365
   234.8900 234.8900 236.1474 236.1474

          k = 0.7500 0.2500-0.2500 (   598 PWs)   bands (ev):

    -2.0449   2.5644   6.5797   8.3998  19.4317  24.7814  26.1778  26.7980
    33.5829  36.9256  41.0128  44.3297  49.7732  55.0728  57.6990  59.6309
    64.5811  64.7763  65.8850  71.5359  72.9214  75.5272  76.9596  80.9064
    82.6179  86.8687  88.4124  91.4060  93.7274  93.9742 100.6819 102.3599
   105.8208 105.9584 109.7744 113.6266 115.0646 120.5329 122.6495 122.7211
   124.4749 125.7431 130.2636 130.6030 133.4710 135.1887 137.5112 139.2037
   140.6452 142.0956 147.2832 148.8382 151.0433 155.6145 156.9924 159.3759
   160.7356 162.0718 164.5654 164.5827 166.0895 168.2040 170.5613 170.9828
   171.7412 173.8652 174.8182 176.9943 178.2735 180.4235 182.5880 183.0568
   186.1711 187.5853 189.7533 190.6499 192.2954 195.8601 199.1218 201.9734
   202.3626 203.2787 206.5604 207.6006 208.0373 210.4111 211.8457 213.0452
   213.8694 218.0347 218.3650 221.6541 223.4403 224.3701 227.0830 231.6269
   231.8982 232.2087 234.3938 234.5191

          k = 0.7500 0.7500-0.2500 (   598 PWs)   bands (ev):

    -2.0449   2.5644   6.5797   8.3998  19.4317  24.7814  26.1778  26.7980
    33.5829  36.9256  41.0128  44.3297  49.7732  55.0728  57.6990  59.6309
    64.5811  64.7763  65.8850  71.5359  72.9214  75.5272  76.9596  80.9064
    82.6179  86.8687  88.4124  91.4060  93.7274  93.9742 100.6819 102.3599
   105.8208 105.9584 109.7744 113.6266 115.0646 120.5329 122.6495 122.7211
   124.4749 125.7431 130.2636 130.6030 133.4710 135.1887 137.5112 139.2037
   140.6452 142.0956 147.2832 148.8382 151.0433 155.6145 156.9924 159.3759
   160.7356 162.0718 164.5654 164.5827 166.0895 168.2040 170.5613 170.9828
   171.7412 173.8652 174.8182 176.9943 178.2735 180.4235 182.5880 183.0568
   186.1711 187.5853 189.7533 190.6499 192.2954 195.8601 199.1218 201.9734
   202.3626 203.2787 206.5604 207.6006 208.0373 210.4111 211.8457 213.0452
   213.8694 218.0347 218.3650 221.6541 223.4403 224.3701 227.0830 231.6269
   231.8982 232.2087 234.3938 234.5191

          k = 0.5000 1.0000-0.5000 (   590 PWs)   bands (ev):

    -3.6330   4.7054   5.6534  10.2881  21.3051  23.3680  25.7574  27.3943
    32.8645  34.1781  38.0615  46.5986  49.3848  55.0813  56.0002  56.1540
    64.9149  68.6163  68.7694  69.4228  74.0715  77.9369  79.2827  81.0846
    82.5559  85.5733  90.8741  93.1108  94.3237  97.7615 102.4788 103.5474
   104.2433 105.8127 106.9772 112.0748 112.9966 114.6826 116.4572 123.4333
   125.9061 126.6624 131.3316 133.0674 135.4236 136.7233 137.7405 140.2574
   141.4930 142.3526 146.2748 148.5850 149.8814 150.2303 151.7280 152.6064
   154.5484 159.9431 163.1823 163.6155 164.3648 169.1289 171.4092 171.5424
   171.8023 175.4355 176.2753 180.9145 181.0051 182.5779 183.0832 186.7536
   186.7783 188.6036 190.0398 195.4456 195.8861 196.3172 196.9928 201.0390
   202.3458 203.6642 205.8673 208.6758 209.9616 210.7488 212.9965 213.2119
   214.5841 216.2439 219.4206 223.2730 223.3519 230.5193 231.4532 233.1433
   233.2899 237.1634 237.4116 240.0946

          k = 1.2500 0.2500 0.2500 (   598 PWs)   bands (ev):

    -2.0449   2.5644   6.5797   8.3998  19.4317  24.7814  26.1778  26.7980
    33.5829  36.9256  41.0128  44.3297  49.7732  55.0728  57.6990  59.6309
    64.5811  64.7763  65.8850  71.5359  72.9214  75.5272  76.9596  80.9064
    82.6179  86.8687  88.4124  91.4060  93.7274  93.9742 100.6819 102.3599
   105.8208 105.9584 109.7744 113.6266 115.0646 120.5329 122.6495 122.7211
   124.4749 125.7431 130.2636 130.6030 133.4710 135.1887 137.5112 139.2037
   140.6452 142.0956 147.2832 148.8382 151.0433 155.6145 156.9924 159.3759
   160.7356 162.0718 164.5654 164.5827 166.0895 168.2040 170.5613 170.9828
   171.7412 173.8652 174.8182 176.9943 178.2735 180.4235 182.5880 183.0568
   186.1711 187.5853 189.7533 190.6499 192.2954 195.8601 199.1218 201.9734
   202.3626 203.2787 206.5604 207.6006 208.0373 210.4111 211.8457 213.0452
   213.8694 218.0347 218.3650 221.6541 223.4403 224.3701 227.0830 231.6269
   231.8982 232.2087 234.3938 234.5191

          k = 1.0000 0.5000 0.0000 (   604 PWs)   bands (ev):

     1.5206   1.5206   4.8631   4.8631  23.8687  23.8687  25.8350  25.8350
    34.6503  34.6503  43.8871  43.8871  56.7145  56.7145  58.8612  58.8612
    61.7549  61.7549  69.4316  69.4316  70.8921  70.8921  81.5728  81.5728
    81.7681  81.7681  83.1125  83.1125  98.7179  98.7179 100.2867 100.2867
   107.8545 107.8545 112.2960 112.2960 113.9804 113.9804 126.8567 126.8567
   128.6366 128.6366 130.1358 130.1358 136.8952 136.8952 138.3598 138.3598
   145.8907 145.8907 147.0393 147.0393 149.1254 149.1254 153.5370 153.5370
   164.2464 164.2464 164.4390 164.4390 168.3688 168.3688 169.4778 169.4778
   170.4182 170.4182 173.0877 173.0877 185.0841 185.0841 191.3602 191.3602
   193.7669 193.7669 194.7178 194.7178 195.4579 195.4579 195.4973 195.4973
   195.9715 195.9715 198.2326 198.2326 211.4993 211.4993 212.4285 212.4285
   214.3827 214.3827 215.1046 215.1046 222.9722 222.9722 223.1461 223.1461
   224.5715 224.5715 225.5040 225.5040

          k = 0.0000 0.0000-1.0000 (   588 PWs)   bands (ev):

     0.6592   0.6592   6.9613   6.9613  18.1146  18.1146  30.1869  30.1869
    36.5374  36.5374  45.8361  45.8361  52.0297  52.0297  62.2195  62.2195
    62.2403  62.2403  63.5968  63.5968  66.0905  66.0905  83.3637  83.3637
    86.3387  86.3387  90.6677  90.6677  96.7845  96.7845 103.8520 103.8520
   109.7040 109.7040 109.7258 109.7258 111.6846 111.6846 113.3980 113.3980
   126.7540 126.7540 132.5907 132.5907 136.9955 136.9955 144.6234 144.6234
   148.3753 148.3753 150.6193 150.6193 154.5946 154.5946 157.6297 157.6297
   157.6592 157.6592 158.9022 158.9022 160.3716 160.3716 160.9145 160.9145
   183.7434 183.7434 184.8692 184.8692 188.5663 188.5663 189.8269 189.8269
   190.7789 190.7789 192.6173 192.6173 192.9496 192.9496 194.8281 194.8281
   200.2345 200.2345 200.3623 200.3623 202.9913 202.9913 205.2566 205.2566
   208.4455 208.4455 208.5657 208.5657 223.5372 223.5372 231.1365 231.1365
   234.8900 234.8900 236.1474 236.1474

          k =-0.2500 0.2500-1.2500 (   598 PWs)   bands (ev):

    -2.0449   2.5644   6.5797   8.3998  19.4317  24.7814  26.1778  26.7980
    33.5829  36.9256  41.0128  44.3297  49.7732  55.0728  57.6990  59.6309
    64.5811  64.7763  65.8850  71.5359  72.9214  75.5272  76.9596  80.9064
    82.6179  86.8687  88.4124  91.4060  93.7274  93.9742 100.6819 102.3599
   105.8208 105.9584 109.7744 113.6266 115.0646 120.5329 122.6495 122.7211
   124.4749 125.7431 130.2636 130.6030 133.4710 135.1887 137.5112 139.2037
   140.6452 142.0956 147.2832 148.8382 151.0433 155.6145 156.9924 159.3759
   160.7356 162.0718 164.5654 164.5827 166.0895 168.2040 170.5613 170.9828
   171.7412 173.8652 174.8182 176.9943 178.2735 180.4235 182.5880 183.0568
   186.1711 187.5853 189.7533 190.6499 192.2954 195.8601 199.1218 201.9734
   202.3626 203.2787 206.5604 207.6006 208.0373 210.4111 211.8457 213.0452
   213.8694 218.0347 218.3650 221.6541 223.4403 224.3701 227.0830 231.6269
   231.8982 232.2087 234.3938 234.5191

          k = 0.5000-0.5000-0.5000 (   580 PWs)   bands (ev):

    -2.2193  -0.1609  10.5053  10.5053  21.7942  21.7942  22.5422  28.8977
    35.0942  37.4679  39.3800  39.3800  47.6866  47.6866  59.2147  67.2171
    67.2171  69.1981  71.0032  71.0032  73.6236  73.6236  76.8573  78.6948
    87.5747  87.5747  90.1072  90.1072  94.4555  96.4092  97.3110  99.2427
    99.2427 101.9537 111.1929 111.1929 117.1418 118.0324 118.0324 120.0761
   123.6784 128.7633 137.2991 137.2991 138.8299 138.8299 141.1888 141.1888
   142.5758 142.5758 144.2935 147.2236 148.8777 150.9390 150.9390 155.8886
   155.8886 164.1095 164.1095 164.6419 165.4127 165.4127 169.8796 170.3100
   170.8302 172.1885 172.2940 172.2940 173.0320 173.0320 178.2041 181.7993
   190.2378 190.2378 190.8423 190.8423 196.0530 196.0530 202.6562 202.6562
   203.3836 207.8736 210.7522 210.7522 213.1033 213.5491 215.1652 218.0439
   218.0439 219.5484 226.6255 226.6255 229.2363 231.8336 232.3489 232.3489
   235.4618 235.4618 236.3933 236.3933

          k = 0.2500-0.2500-0.7500 (   598 PWs)   bands (ev):

    -2.0449   2.5644   6.5797   8.3998  19.4317  24.7814  26.1778  26.7980
    33.5829  36.9256  41.0128  44.3297  49.7732  55.0728  57.6990  59.6309
    64.5811  64.7763  65.8850  71.5359  72.9214  75.5272  76.9596  80.9064
    82.6179  86.8687  88.4124  91.4060  93.7274  93.9742 100.6819 102.3599
   105.8208 105.9584 109.7744 113.6266 115.0646 120.5329 122.6495 122.7211
   124.4749 125.7431 130.2636 130.6030 133.4710 135.1887 137.5112 139.2037
   140.6452 142.0956 147.2832 148.8382 151.0433 155.6145 156.9924 159.3759
   160.7356 162.0718 164.5654 164.5827 166.0895 168.2040 170.5613 170.9828
   171.7412 173.8652 174.8182 176.9943 178.2735 180.4235 182.5880 183.0568
   186.1711 187.5853 189.7533 190.6499 192.2954 195.8601 199.1218 201.9734
   202.3626 203.2787 206.5604 207.6006 208.0373 210.4111 211.8457 213.0452
   213.8694 218.0347 218.3650 221.6541 223.4403 224.3701 227.0830 231.6269
   231.8982 232.2087 234.3938 234.5191

          k = 0.2500 0.2500-0.7500 (   598 PWs)   bands (ev):

    -2.0449   2.5644   6.5797   8.3998  19.4317  24.7814  26.1778  26.7980
    33.5829  36.9256  41.0128  44.3297  49.7732  55.0728  57.6990  59.6309
    64.5811  64.7763  65.8850  71.5359  72.9214  75.5272  76.9596  80.9064
    82.6179  86.8687  88.4124  91.4060  93.7274  93.9742 100.6819 102.3599
   105.8208 105.9584 109.7744 113.6266 115.0646 120.5329 122.6495 122.7211
   124.4749 125.7431 130.2636 130.6030 133.4710 135.1887 137.5112 139.2037
   140.6452 142.0956 147.2832 148.8382 151.0433 155.6145 156.9924 159.3759
   160.7356 162.0718 164.5654 164.5827 166.0895 168.2040 170.5613 170.9828
   171.7412 173.8652 174.8182 176.9943 178.2735 180.4235 182.5880 183.0568
   186.1711 187.5853 189.7533 190.6499 192.2954 195.8601 199.1218 201.9734
   202.3626 203.2787 206.5604 207.6006 208.0373 210.4111 211.8457 213.0452
   213.8694 218.0347 218.3650 221.6541 223.4403 224.3701 227.0830 231.6269
   231.8982 232.2087 234.3938 234.5191

          k = 0.0000 0.5000-1.0000 (   604 PWs)   bands (ev):

     1.5206   1.5206   4.8631   4.8631  23.8687  23.8687  25.8350  25.8350
    34.6503  34.6503  43.8871  43.8871  56.7145  56.7145  58.8612  58.8612
    61.7549  61.7549  69.4316  69.4316  70.8921  70.8921  81.5728  81.5728
    81.7681  81.7681  83.1125  83.1125  98.7179  98.7179 100.2867 100.2867
   107.8545 107.8545 112.2960 112.2960 113.9804 113.9804 126.8567 126.8567
   128.6366 128.6366 130.1358 130.1358 136.8952 136.8952 138.3598 138.3598
   145.8907 145.8907 147.0393 147.0393 149.1254 149.1254 153.5370 153.5370
   164.2464 164.2464 164.4390 164.4390 168.3688 168.3688 169.4778 169.4778
   170.4182 170.4182 173.0877 173.0877 185.0841 185.0841 191.3602 191.3602
   193.7669 193.7669 194.7178 194.7178 195.4579 195.4579 195.4973 195.4973
   195.9715 195.9715 198.2326 198.2326 211.4993 211.4993 212.4285 212.4285
   214.3827 214.3827 215.1046 215.1046 222.9722 222.9722 223.1461 223.1461
   224.5715 224.5715 225.5040 225.5040

          k = 0.7500-0.2500-0.2500 (   598 PWs)   bands (ev):

    -2.0449   2.5644   6.5797   8.3998  19.4317  24.7814  26.1778  26.7980
    33.5829  36.9256  41.0128  44.3297  49.7732  55.0728  57.6990  59.6309
    64.5811  64.7763  65.8850  71.5359  72.9214  75.5272  76.9596  80.9064
    82.6179  86.8687  88.4124  91.4060  93.7274  93.9742 100.6819 102.3599
   105.8208 105.9584 109.7744 113.6266 115.0646 120.5329 122.6495 122.7211
   124.4749 125.7431 130.2636 130.6030 133.4710 135.1887 137.5112 139.2037
   140.6452 142.0956 147.2832 148.8382 151.0433 155.6145 156.9924 159.3759
   160.7356 162.0718 164.5654 164.5827 166.0895 168.2040 170.5613 170.9828
   171.7412 173.8652 174.8182 176.9943 178.2735 180.4235 182.5880 183.0568
   186.1711 187.5853 189.7533 190.6499 192.2954 195.8601 199.1218 201.9734
   202.3626 203.2787 206.5604 207.6006 208.0373 210.4111 211.8457 213.0452
   213.8694 218.0347 218.3650 221.6541 223.4403 224.3701 227.0830 231.6269
   231.8982 232.2087 234.3938 234.5191

          k = 0.5000 0.0000-0.5000 (   590 PWs)   bands (ev):

    -3.6330   4.7054   5.6534  10.2881  21.3051  23.3680  25.7574  27.3943
    32.8645  34.1781  38.0615  46.5986  49.3848  55.0813  56.0002  56.1540
    64.9149  68.6163  68.7694  69.4228  74.0715  77.9369  79.2827  81.0846
    82.5559  85.5733  90.8741  93.1108  94.3237  97.7615 102.4788 103.5474
   104.2433 105.8127 106.9772 112.0748 112.9966 114.6826 116.4572 123.4333
   125.9061 126.6624 131.3316 133.0674 135.4236 136.7233 137.7405 140.2574
   141.4930 142.3526 146.2748 148.5850 149.8814 150.2303 151.7280 152.6064
   154.5484 159.9431 163.1823 163.6155 164.3648 169.1289 171.4092 171.5424
   171.8023 175.4355 176.2753 180.9145 181.0051 182.5779 183.0832 186.7536
   186.7783 188.6036 190.0398 195.4456 195.8861 196.3172 196.9928 201.0390
   202.3458 203.6642 205.8673 208.6758 209.9616 210.7488 212.9965 213.2119
   214.5841 216.2439 219.4206 223.2730 223.3519 230.5193 231.4532 233.1433
   233.2899 237.1634 237.4116 240.0946

          k = 0.2500 0.2500-0.2500 (   589 PWs)   bands (ev):

    -6.4322   6.7527  11.5660  11.5660  21.1339  21.1339  21.6680  28.1028
    33.9002  35.8540  35.8540  38.7102  52.6293  52.6293  56.3246  56.3246
    56.8356  57.9852  73.1487  73.1487  82.3400  83.9771  83.9771  89.2518
    89.2518  90.6742  90.7805  94.5054  96.9098  96.9098 105.2043 106.3672
   106.3672 109.6476 109.6476 110.1840 111.2508 112.7644 112.7644 120.4731
   120.8807 120.8807 123.5083 130.5879 130.5879 130.9651 132.9804 132.9804
   136.0331 141.2349 141.2349 143.3789 145.5651 150.3007 150.3007 150.8272
   154.8732 154.8732 157.3870 157.3870 160.6214 164.1048 170.6368 170.6368
   171.8247 178.8268 178.8268 180.7526 191.1503 191.1503 197.1816 198.2883
   198.2883 198.8355 199.5463 199.5463 202.0853 202.0853 204.5292 205.6272
   207.0902 207.0902 209.3309 211.5634 211.5634 214.1235 218.8905 218.8905
   219.5296 220.2163 222.6350 223.6382 223.6382 227.9654 227.9654 228.7649
   231.3358 231.3358 235.7913 238.8199

          k = 0.0000 0.5000-0.5000 (   590 PWs)   bands (ev):

    -3.6330   4.7054   5.6534  10.2881  21.3051  23.3680  25.7574  27.3943
    32.8645  34.1781  38.0615  46.5986  49.3848  55.0813  56.0002  56.1540
    64.9149  68.6163  68.7694  69.4228  74.0715  77.9369  79.2827  81.0846
    82.5559  85.5733  90.8741  93.1108  94.3237  97.7615 102.4788 103.5474
   104.2433 105.8127 106.9772 112.0748 112.9966 114.6826 116.4572 123.4333
   125.9061 126.6624 131.3316 133.0674 135.4236 136.7233 137.7405 140.2574
   141.4930 142.3526 146.2748 148.5850 149.8814 150.2303 151.7280 152.6064
   154.5484 159.9431 163.1823 163.6155 164.3648 169.1289 171.4092 171.5424
   171.8023 175.4355 176.2753 180.9145 181.0051 182.5779 183.0832 186.7536
   186.7783 188.6036 190.0398 195.4456 195.8861 196.3172 196.9928 201.0390
   202.3458 203.6642 205.8673 208.6758 209.9616 210.7488 212.9965 213.2119
   214.5841 216.2439 219.4206 223.2730 223.3519 230.5193 231.4532 233.1433
   233.2899 237.1634 237.4116 240.0946

          k = 0.7500-0.2500 0.2500 (   598 PWs)   bands (ev):

    -2.0449   2.5644   6.5797   8.3998  19.4317  24.7814  26.1778  26.7980
    33.5829  36.9256  41.0128  44.3297  49.7732  55.0728  57.6990  59.6309
    64.5811  64.7763  65.8850  71.5359  72.9214  75.5272  76.9596  80.9064
    82.6179  86.8687  88.4124  91.4060  93.7274  93.9742 100.6819 102.3599
   105.8208 105.9584 109.7744 113.6266 115.0646 120.5329 122.6495 122.7211
   124.4749 125.7431 130.2636 130.6030 133.4710 135.1887 137.5112 139.2037
   140.6452 142.0956 147.2832 148.8382 151.0433 155.6145 156.9924 159.3759
   160.7356 162.0718 164.5654 164.5827 166.0895 168.2040 170.5613 170.9828
   171.7412 173.8652 174.8182 176.9943 178.2735 180.4235 182.5880 183.0568
   186.1711 187.5853 189.7533 190.6499 192.2954 195.8601 199.1218 201.9734
   202.3626 203.2787 206.5604 207.6006 208.0373 210.4111 211.8457 213.0452
   213.8694 218.0347 218.3650 221.6541 223.4403 224.3701 227.0830 231.6269
   231.8982 232.2087 234.3938 234.5191

          k = 0.5000 0.0000 0.0000 (   592 PWs)   bands (ev):

    -5.8556   8.9396   9.1595   9.1595  17.8112  23.6360  24.9533  24.9533
    33.6032  35.3692  43.1725  46.0215  46.0215  48.9931  54.5903  54.5903
    59.1255  64.3573  66.7385  78.4673  78.4673  82.2923  83.0106  83.0106
    84.9298  86.5817  92.8522  97.7733  97.7733 103.5621 106.4247 106.5054
   106.5054 108.4014 110.5058 112.6523 113.4790 113.4790 115.9810 118.1122
   118.1122 118.8352 121.7688 126.7839 126.7839 132.4346 133.2878 137.2462
   137.4280 137.4280 138.1397 138.4262 147.2791 154.6241 155.5342 155.5342
   161.2960 164.6494 164.6494 164.7958 165.6756 165.6756 168.7848 176.1324
   176.1324 177.1418 177.1628 181.7457 184.4637 184.4637 185.3271 185.5356
   186.3124 189.7629 189.7629 192.5625 199.0241 199.0241 203.1460 203.7756
   206.6672 206.6672 207.9872 208.9507 215.2233 215.2233 219.5884 220.0778
   222.5810 227.5494 227.5494 230.1838 230.3735 230.6692 231.9410 231.9410
   234.0037 236.4997 236.7762 236.7762

          k = 0.5000 0.5000 0.0000 (   590 PWs)   bands (ev):

    -3.6330   4.7054   5.6534  10.2881  21.3051  23.3680  25.7574  27.3943
    32.8645  34.1781  38.0615  46.5986  49.3848  55.0813  56.0002  56.1540
    64.9149  68.6163  68.7694  69.4228  74.0715  77.9369  79.2827  81.0846
    82.5559  85.5733  90.8741  93.1108  94.3237  97.7615 102.4788 103.5474
   104.2433 105.8127 106.9772 112.0748 112.9966 114.6826 116.4572 123.4333
   125.9061 126.6624 131.3316 133.0674 135.4236 136.7233 137.7405 140.2574
   141.4930 142.3526 146.2748 148.5850 149.8814 150.2303 151.7280 152.6064
   154.5484 159.9431 163.1823 163.6155 164.3648 169.1289 171.4092 171.5424
   171.8023 175.4355 176.2753 180.9145 181.0051 182.5779 183.0832 186.7536
   186.7783 188.6036 190.0398 195.4456 195.8861 196.3172 196.9928 201.0390
   202.3458 203.6642 205.8673 208.6758 209.9616 210.7488 212.9965 213.2119
   214.5841 216.2439 219.4206 223.2730 223.3519 230.5193 231.4532 233.1433
   233.2899 237.1634 237.4116 240.0946

          k = 0.2500 0.7500-0.2500 (   598 PWs)   bands (ev):

    -2.0449   2.5644   6.5797   8.3998  19.4317  24.7814  26.1778  26.7980
    33.5829  36.9256  41.0128  44.3297  49.7732  55.0728  57.6990  59.6309
    64.5811  64.7763  65.8850  71.5359  72.9214  75.5272  76.9596  80.9064
    82.6179  86.8687  88.4124  91.4060  93.7274  93.9742 100.6819 102.3599
   105.8208 105.9584 109.7744 113.6266 115.0646 120.5329 122.6495 122.7211
   124.4749 125.7431 130.2636 130.6030 133.4710 135.1887 137.5112 139.2037
   140.6452 142.0956 147.2832 148.8382 151.0433 155.6145 156.9924 159.3759
   160.7356 162.0718 164.5654 164.5827 166.0895 168.2040 170.5613 170.9828
   171.7412 173.8652 174.8182 176.9943 178.2735 180.4235 182.5880 183.0568
   186.1711 187.5853 189.7533 190.6499 192.2954 195.8601 199.1218 201.9734
   202.3626 203.2787 206.5604 207.6006 208.0373 210.4111 211.8457 213.0452
   213.8694 218.0347 218.3650 221.6541 223.4403 224.3701 227.0830 231.6269
   231.8982 232.2087 234.3938 234.5191

          k = 1.0000 0.0000 0.5000 (   604 PWs)   bands (ev):

     1.5206   1.5206   4.8631   4.8631  23.8687  23.8687  25.8350  25.8350
    34.6503  34.6503  43.8871  43.8871  56.7145  56.7145  58.8612  58.8612
    61.7549  61.7549  69.4316  69.4316  70.8921  70.8921  81.5728  81.5728
    81.7681  81.7681  83.1125  83.1125  98.7179  98.7179 100.2867 100.2867
   107.8545 107.8545 112.2960 112.2960 113.9804 113.9804 126.8567 126.8567
   128.6366 128.6366 130.1358 130.1358 136.8952 136.8952 138.3598 138.3598
   145.8907 145.8907 147.0393 147.0393 149.1254 149.1254 153.5370 153.5370
   164.2464 164.2464 164.4390 164.4390 168.3688 168.3688 169.4778 169.4778
   170.4182 170.4182 173.0877 173.0877 185.0841 185.0841 191.3602 191.3602
   193.7669 193.7669 194.7178 194.7178 195.4579 195.4579 195.4973 195.4973
   195.9715 195.9715 198.2326 198.2326 211.4993 211.4993 212.4285 212.4285
   214.3827 214.3827 215.1046 215.1046 222.9722 222.9722 223.1461 223.1461
   224.5715 224.5715 225.5040 225.5040

          k = 0.7500 0.2500 0.2500 (   598 PWs)   bands (ev):

    -2.0449   2.5644   6.5797   8.3998  19.4317  24.7814  26.1778  26.7980
    33.5829  36.9256  41.0128  44.3297  49.7732  55.0728  57.6990  59.6309
    64.5811  64.7763  65.8850  71.5359  72.9214  75.5272  76.9596  80.9064
    82.6179  86.8687  88.4124  91.4060  93.7274  93.9742 100.6819 102.3599
   105.8208 105.9584 109.7744 113.6266 115.0646 120.5329 122.6495 122.7211
   124.4749 125.7431 130.2636 130.6030 133.4710 135.1887 137.5112 139.2037
   140.6452 142.0956 147.2832 148.8382 151.0433 155.6145 156.9924 159.3759
   160.7356 162.0718 164.5654 164.5827 166.0895 168.2040 170.5613 170.9828
   171.7412 173.8652 174.8182 176.9943 178.2735 180.4235 182.5880 183.0568
   186.1711 187.5853 189.7533 190.6499 192.2954 195.8601 199.1218 201.9734
   202.3626 203.2787 206.5604 207.6006 208.0373 210.4111 211.8457 213.0452
   213.8694 218.0347 218.3650 221.6541 223.4403 224.3701 227.0830 231.6269
   231.8982 232.2087 234.3938 234.5191

          k =-0.2500-0.2500-0.7500 (   598 PWs)   bands (ev):

    -2.0449   2.5644   6.5797   8.3998  19.4317  24.7814  26.1778  26.7980
    33.5829  36.9256  41.0128  44.3297  49.7732  55.0728  57.6990  59.6309
    64.5811  64.7763  65.8850  71.5359  72.9214  75.5272  76.9596  80.9064
    82.6179  86.8687  88.4124  91.4060  93.7274  93.9742 100.6819 102.3599
   105.8208 105.9584 109.7744 113.6266 115.0646 120.5329 122.6495 122.7211
   124.4749 125.7431 130.2636 130.6030 133.4710 135.1887 137.5112 139.2037
   140.6452 142.0956 147.2832 148.8382 151.0433 155.6145 156.9924 159.3759
   160.7356 162.0718 164.5654 164.5827 166.0895 168.2040 170.5613 170.9828
   171.7412 173.8652 174.8182 176.9943 178.2735 180.4235 182.5880 183.0568
   186.1711 187.5853 189.7533 190.6499 192.2954 195.8601 199.1218 201.9734
   202.3626 203.2787 206.5604 207.6006 208.0373 210.4111 211.8457 213.0452
   213.8694 218.0347 218.3650 221.6541 223.4403 224.3701 227.0830 231.6269
   231.8982 232.2087 234.3938 234.5191

          k =-0.5000 0.0000-1.0000 (   604 PWs)   bands (ev):

     1.5206   1.5206   4.8631   4.8631  23.8687  23.8687  25.8350  25.8350
    34.6503  34.6503  43.8871  43.8871  56.7145  56.7145  58.8612  58.8612
    61.7549  61.7549  69.4316  69.4316  70.8921  70.8921  81.5728  81.5728
    81.7681  81.7681  83.1125  83.1125  98.7179  98.7179 100.2867 100.2867
   107.8545 107.8545 112.2960 112.2960 113.9804 113.9804 126.8567 126.8567
   128.6366 128.6366 130.1358 130.1358 136.8952 136.8952 138.3598 138.3598
   145.8907 145.8907 147.0393 147.0393 149.1254 149.1254 153.5370 153.5370
   164.2464 164.2464 164.4390 164.4390 168.3688 168.3688 169.4778 169.4778
   170.4182 170.4182 173.0877 173.0877 185.0841 185.0841 191.3602 191.3602
   193.7669 193.7669 194.7178 194.7178 195.4579 195.4579 195.4973 195.4973
   195.9715 195.9715 198.2326 198.2326 211.4993 211.4993 212.4285 212.4285
   214.3827 214.3827 215.1046 215.1046 222.9722 222.9722 223.1461 223.1461
   224.5715 224.5715 225.5040 225.5040

          k = 0.2500-0.7500-0.2500 (   598 PWs)   bands (ev):

    -2.0449   2.5644   6.5797   8.3998  19.4317  24.7814  26.1778  26.7980
    33.5829  36.9256  41.0128  44.3297  49.7732  55.0728  57.6990  59.6309
    64.5811  64.7763  65.8850  71.5359  72.9214  75.5272  76.9596  80.9064
    82.6179  86.8687  88.4124  91.4060  93.7274  93.9742 100.6819 102.3599
   105.8208 105.9584 109.7744 113.6266 115.0646 120.5329 122.6495 122.7211
   124.4749 125.7431 130.2636 130.6030 133.4710 135.1887 137.5112 139.2037
   140.6452 142.0956 147.2832 148.8382 151.0433 155.6145 156.9924 159.3759
   160.7356 162.0718 164.5654 164.5827 166.0895 168.2040 170.5613 170.9828
   171.7412 173.8652 174.8182 176.9943 178.2735 180.4235 182.5880 183.0568
   186.1711 187.5853 189.7533 190.6499 192.2954 195.8601 199.1218 201.9734
   202.3626 203.2787 206.5604 207.6006 208.0373 210.4111 211.8457 213.0452
   213.8694 218.0347 218.3650 221.6541 223.4403 224.3701 227.0830 231.6269
   231.8982 232.2087 234.3938 234.5191

          k = 0.0000-0.5000-0.5000 (   590 PWs)   bands (ev):

    -3.6330   4.7054   5.6534  10.2881  21.3051  23.3680  25.7574  27.3943
    32.8645  34.1781  38.0615  46.5986  49.3848  55.0813  56.0002  56.1540
    64.9149  68.6163  68.7694  69.4228  74.0715  77.9369  79.2827  81.0846
    82.5559  85.5733  90.8741  93.1108  94.3237  97.7615 102.4788 103.5474
   104.2433 105.8127 106.9772 112.0748 112.9966 114.6826 116.4572 123.4333
   125.9061 126.6624 131.3316 133.0674 135.4236 136.7233 137.7405 140.2574
   141.4930 142.3526 146.2748 148.5850 149.8814 150.2303 151.7280 152.6064
   154.5484 159.9431 163.1823 163.6155 164.3648 169.1289 171.4092 171.5424
   171.8023 175.4355 176.2753 180.9145 181.0051 182.5779 183.0832 186.7536
   186.7783 188.6036 190.0398 195.4456 195.8861 196.3172 196.9928 201.0390
   202.3458 203.6642 205.8673 208.6758 209.9616 210.7488 212.9965 213.2119
   214.5841 216.2439 219.4206 223.2730 223.3519 230.5193 231.4532 233.1433
   233.2899 237.1634 237.4116 240.0946

          k = 0.0000 0.0000-0.5000 (   592 PWs)   bands (ev):

    -5.8556   8.9396   9.1595   9.1595  17.8112  23.6360  24.9533  24.9533
    33.6032  35.3692  43.1725  46.0215  46.0215  48.9931  54.5903  54.5903
    59.1255  64.3573  66.7385  78.4673  78.4673  82.2923  83.0106  83.0106
    84.9298  86.5817  92.8522  97.7733  97.7733 103.5621 106.4247 106.5054
   106.5054 108.4014 110.5058 112.6523 113.4790 113.4790 115.9810 118.1122
   118.1122 118.8352 121.7688 126.7839 126.7839 132.4346 133.2878 137.2462
   137.4280 137.4280 138.1397 138.4262 147.2791 154.6241 155.5342 155.5342
   161.2960 164.6494 164.6494 164.7958 165.6756 165.6756 168.7848 176.1324
   176.1324 177.1418 177.1628 181.7457 184.4637 184.4637 185.3271 185.5356
   186.3124 189.7629 189.7629 192.5625 199.0241 199.0241 203.1460 203.7756
   206.6672 206.6672 207.9872 208.9507 215.2233 215.2233 219.5884 220.0778
   222.5810 227.5494 227.5494 230.1838 230.3735 230.6692 231.9410 231.9410
   234.0037 236.4997 236.7762 236.7762

          k =-0.2500 0.2500-0.7500 (   598 PWs)   bands (ev):

    -2.0449   2.5644   6.5797   8.3998  19.4317  24.7814  26.1778  26.7980
    33.5829  36.9256  41.0128  44.3297  49.7732  55.0728  57.6990  59.6309
    64.5811  64.7763  65.8850  71.5359  72.9214  75.5272  76.9596  80.9064
    82.6179  86.8687  88.4124  91.4060  93.7274  93.9742 100.6819 102.3599
   105.8208 105.9584 109.7744 113.6266 115.0646 120.5329 122.6495 122.7211
   124.4749 125.7431 130.2636 130.6030 133.4710 135.1887 137.5112 139.2037
   140.6452 142.0956 147.2832 148.8382 151.0433 155.6145 156.9924 159.3759
   160.7356 162.0718 164.5654 164.5827 166.0895 168.2040 170.5613 170.9828
   171.7412 173.8652 174.8182 176.9943 178.2735 180.4235 182.5880 183.0568
   186.1711 187.5853 189.7533 190.6499 192.2954 195.8601 199.1218 201.9734
   202.3626 203.2787 206.5604 207.6006 208.0373 210.4111 211.8457 213.0452
   213.8694 218.0347 218.3650 221.6541 223.4403 224.3701 227.0830 231.6269
   231.8982 232.2087 234.3938 234.5191

          k = 0.5000-0.5000 0.0000 (   590 PWs)   bands (ev):

    -3.6330   4.7054   5.6534  10.2881  21.3051  23.3680  25.7574  27.3943
    32.8645  34.1781  38.0615  46.5986  49.3848  55.0813  56.0002  56.1540
    64.9149  68.6163  68.7694  69.4228  74.0715  77.9369  79.2827  81.0846
    82.5559  85.5733  90.8741  93.1108  94.3237  97.7615 102.4788 103.5474
   104.2433 105.8127 106.9772 112.0748 112.9966 114.6826 116.4572 123.4333
   125.9061 126.6624 131.3316 133.0674 135.4236 136.7233 137.7405 140.2574
   141.4930 142.3526 146.2748 148.5850 149.8814 150.2303 151.7280 152.6064
   154.5484 159.9431 163.1823 163.6155 164.3648 169.1289 171.4092 171.5424
   171.8023 175.4355 176.2753 180.9145 181.0051 182.5779 183.0832 186.7536
   186.7783 188.6036 190.0398 195.4456 195.8861 196.3172 196.9928 201.0390
   202.3458 203.6642 205.8673 208.6758 209.9616 210.7488 212.9965 213.2119
   214.5841 216.2439 219.4206 223.2730 223.3519 230.5193 231.4532 233.1433
   233.2899 237.1634 237.4116 240.0946

          k = 0.2500-0.2500-0.2500 (   589 PWs)   bands (ev):

    -6.4322   6.7527  11.5660  11.5660  21.1339  21.1339  21.6680  28.1028
    33.9002  35.8540  35.8540  38.7102  52.6293  52.6293  56.3246  56.3246
    56.8356  57.9852  73.1487  73.1487  82.3400  83.9771  83.9771  89.2518
    89.2518  90.6742  90.7805  94.5054  96.9098  96.9098 105.2043 106.3672
   106.3672 109.6476 109.6476 110.1840 111.2508 112.7644 112.7644 120.4731
   120.8807 120.8807 123.5083 130.5879 130.5879 130.9651 132.9804 132.9804
   136.0331 141.2349 141.2349 143.3789 145.5651 150.3007 150.3007 150.8272
   154.8732 154.8732 157.3870 157.3870 160.6214 164.1048 170.6368 170.6368
   171.8247 178.8268 178.8268 180.7526 191.1503 191.1503 197.1816 198.2883
   198.2883 198.8355 199.5463 199.5463 202.0853 202.0853 204.5292 205.6272
   207.0902 207.0902 209.3309 211.5634 211.5634 214.1235 218.8905 218.8905
   219.5296 220.2163 222.6350 223.6382 223.6382 227.9654 227.9654 228.7649
   231.3358 231.3358 235.7913 238.8199

     highest occupied, lowest unoccupied level (ev):    13.3272   17.8112

     Writing output data file c.save
 
     init_run     :      0.06s CPU      0.24s WALL (       1 calls)
     electrons    :     29.89s CPU     31.33s WALL (       1 calls)

     Called by init_run:
     wfcinit      :      0.00s CPU      0.00s WALL (       1 calls)
     potinit      :      0.02s CPU      0.03s WALL (       1 calls)

     Called by electrons:
     c_bands      :     29.89s CPU     31.27s WALL (       1 calls)
     v_of_rho     :      0.00s CPU      0.01s WALL (       1 calls)

     Called by c_bands:
     init_us_2    :      0.00s CPU      0.00s WALL (      64 calls)
     cegterg      :     28.82s CPU     30.11s WALL (      64 calls)

     Called by sum_band:

     Called by *egterg:
     h_psi        :      2.50s CPU      2.73s WALL (     673 calls)
     g_psi        :      0.00s CPU      0.00s WALL (     545 calls)
     cdiaghg      :     25.82s CPU     26.88s WALL (     609 calls)

     Called by h_psi:
     h_psi:pot    :      2.50s CPU      2.72s WALL (     673 calls)
     h_psi:calbec :      0.03s CPU      0.04s WALL (     673 calls)
     vloc_psi     :      2.46s CPU      2.67s WALL (     673 calls)
     add_vuspsi   :      0.01s CPU      0.01s WALL (     673 calls)

     General routines
     calbec       :      0.02s CPU      0.03s WALL (     673 calls)
     fft          :      0.02s CPU      0.04s WALL (       3 calls)
     fftw         :      2.30s CPU      2.49s WALL (   89526 calls)
 
     Parallel routines
     fft_scatter  :      1.84s CPU      2.00s WALL (   89529 calls)
 
     PWSCF        :    32.06s CPU        35.85s WALL

 
   This run was terminated on:  23:38: 7   3Jan2021            

=------------------------------------------------------------------------------=
   JOB DONE.
=------------------------------------------------------------------------------=
