
     Program PWSCF v.6.1 (svn rev. 13369) starts on  4Jan2021 at 15:35:54 

     This program is part of the open-source Quantum ESPRESSO suite
     for quantum simulation of materials; please cite
         "P. Giannozzi et al., J. Phys.:Condens. Matter 21 395502 (2009);
          URL http://www.quantum-espresso.org", 
     in publications or presentations arising from this work. More details at
     http://www.quantum-espresso.org/quote

     Parallel version (MPI & OpenMP), running on      40 processor cores
     Number of MPI processes:                40
     Threads/MPI process:                     1
     R & G space division:  proc/nbgrp/npool/nimage =      40
     Waiting for input...
     Reading input from standard input

     Current dimensions of program PWSCF are:
     Max number of different atomic species (ntypx) = 10
     Max number of k-points (npk) =  40000
     Max angular momentum in pseudopotentials (lmaxx) =  3

     IMPORTANT: XC functional enforced from input :
     Exchange-correlation      = PZ ( 1  1  0  0 0 0)
     Any further DFT definition will be discarded
     Please, verify this is what you really want

               file C.pz-mt.fhi.UPF: wavefunction(s)  3d renormalized

     Subspace diagonalization in iterative solution of the eigenvalue problem:
     one sub-group per band group will be used
     scalapack distributed-memory algorithm (size of sub-group:  4*  4 procs)

 
     Parallelization info
     --------------------
     sticks:   dense  smooth     PW     G-vecs:    dense   smooth      PW
     Min          12      12      4                  183      183      32
     Max          13      13      5                  187      187      36
     Sum         499     499    163                 7391     7391    1363
 


     bravais-lattice index     =            2
     lattice parameter (alat)  =       6.7034  a.u.
     unit-cell volume          =      75.3061 (a.u.)^3
     number of atoms/cell      =            2
     number of atomic types    =            1
     number of electrons       =         8.00
     number of Kohn-Sham states=            8
     kinetic-energy cutoff     =      80.0000  Ry
     charge density cutoff     =     320.0000  Ry
     convergence threshold     =      1.0E-15
     mixing beta               =       0.7000
     number of iterations used =            8  local-TF  mixing
     Exchange-correlation      = PZ ( 1  1  0  0 0 0)
     nstep                     =           50


     celldm(1)=   6.703426  celldm(2)=   0.000000  celldm(3)=   0.000000
     celldm(4)=   0.000000  celldm(5)=   0.000000  celldm(6)=   0.000000

     crystal axes: (cart. coord. in units of alat)
               a(1) = (  -0.500000   0.000000   0.500000 )  
               a(2) = (   0.000000   0.500000   0.500000 )  
               a(3) = (  -0.500000   0.500000   0.000000 )  

     reciprocal axes: (cart. coord. in units 2 pi/alat)
               b(1) = ( -1.000000 -1.000000  1.000000 )  
               b(2) = (  1.000000  1.000000  1.000000 )  
               b(3) = ( -1.000000  1.000000 -1.000000 )  


     PseudoPot. # 1 for  C read from file:
     ../C.pz-mt.fhi.UPF
     MD5 check sum: b7c38bc33a0cf75f44be89b84470f298
     Pseudo is Norm-conserving, Zval =  4.0
     Generated using FHI98PP, converted with fhi2upf.x v.5.0.2
     Using radial grid of  461 points,  2 beta functions with: 
                l(1) =   0
                l(2) =   1

     atomic species   valence    mass     pseudopotential
        C              4.00    12.01100      C( 1.00)

     24 Sym. Ops. (no inversion) found
          (note: 24 additional sym.ops. were found but ignored
           their fractional translations are incommensurate with FFT grid)


   Cartesian axes

     site n.     atom                  positions (alat units)
         1           C   tau(   1) = (   0.0000000   0.0000000   0.0000000  )
         2           C   tau(   2) = (  -0.2500000   0.2500000   0.2500000  )

     number of k points=    72
                       cart. coord. in units 2pi/alat
        k(    1) = (   0.0000000   0.0000000   0.0000000), wk =   0.0011574
        k(    2) = (  -0.0833333   0.0833333  -0.0833333), wk =   0.0092593
        k(    3) = (  -0.1666667   0.1666667  -0.1666667), wk =   0.0092593
        k(    4) = (  -0.2500000   0.2500000  -0.2500000), wk =   0.0092593
        k(    5) = (  -0.3333333   0.3333333  -0.3333333), wk =   0.0092593
        k(    6) = (  -0.4166667   0.4166667  -0.4166667), wk =   0.0092593
        k(    7) = (   0.5000000  -0.5000000   0.5000000), wk =   0.0046296
        k(    8) = (   0.0000000   0.1666667   0.0000000), wk =   0.0069444
        k(    9) = (  -0.0833333   0.2500000  -0.0833333), wk =   0.0277778
        k(   10) = (  -0.1666667   0.3333333  -0.1666667), wk =   0.0277778
        k(   11) = (  -0.2500000   0.4166667  -0.2500000), wk =   0.0277778
        k(   12) = (  -0.3333333   0.5000000  -0.3333333), wk =   0.0277778
        k(   13) = (   0.5833333  -0.4166667   0.5833333), wk =   0.0277778
        k(   14) = (   0.5000000  -0.3333333   0.5000000), wk =   0.0277778
        k(   15) = (   0.4166667  -0.2500000   0.4166667), wk =   0.0277778
        k(   16) = (   0.3333333  -0.1666667   0.3333333), wk =   0.0277778
        k(   17) = (   0.2500000  -0.0833333   0.2500000), wk =   0.0277778
        k(   18) = (   0.1666667  -0.0000000   0.1666667), wk =   0.0138889
        k(   19) = (   0.0000000   0.3333333   0.0000000), wk =   0.0069444
        k(   20) = (  -0.0833333   0.4166667  -0.0833333), wk =   0.0277778
        k(   21) = (  -0.1666667   0.5000000  -0.1666667), wk =   0.0277778
        k(   22) = (  -0.2500000   0.5833333  -0.2500000), wk =   0.0277778
        k(   23) = (   0.6666667  -0.3333333   0.6666667), wk =   0.0277778
        k(   24) = (   0.5833333  -0.2500000   0.5833333), wk =   0.0277778
        k(   25) = (   0.5000000  -0.1666667   0.5000000), wk =   0.0277778
        k(   26) = (   0.4166667  -0.0833333   0.4166667), wk =   0.0277778
        k(   27) = (   0.3333333   0.0000000   0.3333333), wk =   0.0138889
        k(   28) = (   0.0000000   0.5000000   0.0000000), wk =   0.0069444
        k(   29) = (  -0.0833333   0.5833333  -0.0833333), wk =   0.0277778
        k(   30) = (  -0.1666667   0.6666667  -0.1666667), wk =   0.0277778
        k(   31) = (   0.7500000  -0.2500000   0.7500000), wk =   0.0277778
        k(   32) = (   0.6666667  -0.1666667   0.6666667), wk =   0.0277778
        k(   33) = (   0.5833333  -0.0833333   0.5833333), wk =   0.0277778
        k(   34) = (   0.5000000   0.0000000   0.5000000), wk =   0.0138889
        k(   35) = (   0.0000000   0.6666667   0.0000000), wk =   0.0069444
        k(   36) = (  -0.0833333   0.7500000  -0.0833333), wk =   0.0277778
        k(   37) = (   0.8333333  -0.1666667   0.8333333), wk =   0.0277778
        k(   38) = (   0.7500000  -0.0833333   0.7500000), wk =   0.0277778
        k(   39) = (   0.6666667  -0.0000000   0.6666667), wk =   0.0138889
        k(   40) = (   0.0000000   0.8333333   0.0000000), wk =   0.0069444
        k(   41) = (   0.9166667  -0.0833333   0.9166667), wk =   0.0277778
        k(   42) = (   0.8333333   0.0000000   0.8333333), wk =   0.0138889
        k(   43) = (   0.0000000  -1.0000000   0.0000000), wk =   0.0034722
        k(   44) = (  -0.1666667   0.3333333   0.0000000), wk =   0.0277778
        k(   45) = (  -0.2500000   0.4166667  -0.0833333), wk =   0.0555556
        k(   46) = (  -0.3333333   0.5000000  -0.1666667), wk =   0.0555556
        k(   47) = (   0.5833333  -0.4166667   0.7500000), wk =   0.0555556
        k(   48) = (   0.5000000  -0.3333333   0.6666667), wk =   0.0277778
        k(   49) = (  -0.1666667   0.5000000   0.0000000), wk =   0.0277778
        k(   50) = (  -0.2500000   0.5833333  -0.0833333), wk =   0.0555556
        k(   51) = (   0.6666667  -0.3333333   0.8333333), wk =   0.0555556
        k(   52) = (   0.5833333  -0.2500000   0.7500000), wk =   0.0555556
        k(   53) = (   0.5000000  -0.1666667   0.6666667), wk =   0.0555556
        k(   54) = (   0.4166667  -0.0833333   0.5833333), wk =   0.0555556
        k(   55) = (   0.3333333   0.0000000   0.5000000), wk =   0.0277778
        k(   56) = (  -0.1666667   0.6666667  -0.0000000), wk =   0.0277778
        k(   57) = (   0.7500000  -0.2500000   0.9166667), wk =   0.0555556
        k(   58) = (   0.6666667  -0.1666667   0.8333333), wk =   0.0555556
        k(   59) = (   0.5833333  -0.0833333   0.7500000), wk =   0.0555556
        k(   60) = (   0.5000000   0.0000000   0.6666667), wk =   0.0277778
        k(   61) = (   0.8333333  -0.1666667   1.0000000), wk =   0.0277778
        k(   62) = (   0.7500000  -0.0833333   0.9166667), wk =   0.0555556
        k(   63) = (   0.6666667   0.0000000   0.8333333), wk =   0.0277778
        k(   64) = (  -0.1666667  -1.0000000  -0.0000000), wk =   0.0138889
        k(   65) = (   0.6666667  -0.3333333   1.0000000), wk =   0.0277778
        k(   66) = (   0.5833333  -0.2500000   0.9166667), wk =   0.0555556
        k(   67) = (   0.5000000  -0.1666667   0.8333333), wk =   0.0277778
        k(   68) = (   0.6666667  -0.1666667   1.0000000), wk =   0.0277778
        k(   69) = (   0.5833333  -0.0833333   0.9166667), wk =   0.0555556
        k(   70) = (   0.5000000   0.0000000   0.8333333), wk =   0.0277778
        k(   71) = (  -0.3333333  -1.0000000   0.0000000), wk =   0.0138889
        k(   72) = (  -0.5000000  -1.0000000   0.0000000), wk =   0.0069444

     Dense  grid:     7391 G-vectors     FFT dimensions: (  27,  27,  27)

     Estimated max dynamical RAM per process >       0.41MB

     Estimated total allocated dynamical RAM >      16.25MB
     Message from routine sym_rho_init:
     some processors have no G-vectors for symmetrization

     Initial potential from superposition of free atoms

     starting charge    7.99993, renormalised to    8.00000
     Starting wfc are   18 randomized atomic wfcs

     total cpu time spent up to now is        1.2 secs

     per-process dynamical memory:    13.1 Mb

     Self-consistent Calculation

     iteration #  1     ecut=    80.00 Ry     beta=0.70
     Davidson diagonalization with overlap
     ethr =  1.00E-02,  avg # of iterations =  2.9

     total cpu time spent up to now is        2.0 secs

     total energy              =     -22.89620589 Ry
     Harris-Foulkes estimate   =     -22.94605385 Ry
     estimated scf accuracy    <       0.12957752 Ry

     iteration #  2     ecut=    80.00 Ry     beta=0.70
     Davidson diagonalization with overlap
     ethr =  1.62E-03,  avg # of iterations =  1.3

     total cpu time spent up to now is        2.5 secs

     total energy              =     -22.88620415 Ry
     Harris-Foulkes estimate   =     -22.90051990 Ry
     estimated scf accuracy    <       0.02656245 Ry

     iteration #  3     ecut=    80.00 Ry     beta=0.70
     Davidson diagonalization with overlap
     ethr =  3.32E-04,  avg # of iterations =  2.1

     total cpu time spent up to now is        3.1 secs

     total energy              =     -22.88938343 Ry
     Harris-Foulkes estimate   =     -22.88934392 Ry
     estimated scf accuracy    <       0.00012272 Ry

     iteration #  4     ecut=    80.00 Ry     beta=0.70
     Davidson diagonalization with overlap
     ethr =  1.53E-06,  avg # of iterations =  2.2

     total cpu time spent up to now is        3.8 secs

     total energy              =     -22.88941162 Ry
     Harris-Foulkes estimate   =     -22.88941536 Ry
     estimated scf accuracy    <       0.00000974 Ry

     iteration #  5     ecut=    80.00 Ry     beta=0.70
     Davidson diagonalization with overlap
     ethr =  1.22E-07,  avg # of iterations =  2.0

     total cpu time spent up to now is        4.4 secs

     total energy              =     -22.88941272 Ry
     Harris-Foulkes estimate   =     -22.88941261 Ry
     estimated scf accuracy    <       0.00000025 Ry

     iteration #  6     ecut=    80.00 Ry     beta=0.70
     Davidson diagonalization with overlap
     ethr =  3.17E-09,  avg # of iterations =  2.1

     total cpu time spent up to now is        5.0 secs

     total energy              =     -22.88941275 Ry
     Harris-Foulkes estimate   =     -22.88941275 Ry
     estimated scf accuracy    <          8.6E-10 Ry

     iteration #  7     ecut=    80.00 Ry     beta=0.70
     Davidson diagonalization with overlap
     ethr =  1.08E-11,  avg # of iterations =  3.1

     total cpu time spent up to now is        5.8 secs

     total energy              =     -22.88941275 Ry
     Harris-Foulkes estimate   =     -22.88941275 Ry
     estimated scf accuracy    <          4.2E-10 Ry

     iteration #  8     ecut=    80.00 Ry     beta=0.70
     Davidson diagonalization with overlap
     ethr =  5.30E-12,  avg # of iterations =  2.1

     total cpu time spent up to now is        6.4 secs

     total energy              =     -22.88941275 Ry
     Harris-Foulkes estimate   =     -22.88941275 Ry
     estimated scf accuracy    <          5.5E-13 Ry

     iteration #  9     ecut=    80.00 Ry     beta=0.70
     Davidson diagonalization with overlap
     ethr =  1.00E-13,  avg # of iterations =  2.0

     total cpu time spent up to now is        7.0 secs

     total energy              =     -22.88941275 Ry
     Harris-Foulkes estimate   =     -22.88941275 Ry
     estimated scf accuracy    <          4.2E-13 Ry

     iteration # 10     ecut=    80.00 Ry     beta=0.70
     Davidson diagonalization with overlap
     ethr =  1.00E-13,  avg # of iterations =  1.0

     total cpu time spent up to now is        7.4 secs

     total energy              =     -22.88941275 Ry
     Harris-Foulkes estimate   =     -22.88941275 Ry
     estimated scf accuracy    <          1.5E-14 Ry

     iteration # 11     ecut=    80.00 Ry     beta=0.70
     Davidson diagonalization with overlap
     ethr =  1.00E-13,  avg # of iterations =  1.0

     total cpu time spent up to now is        7.8 secs

     End of self-consistent calculation

          k = 0.0000 0.0000 0.0000 (   941 PWs)   bands (ev):

    -8.1914  13.2956  13.2956  13.2956  18.9011  18.9011  18.9011  27.0685

          k =-0.0833 0.0833-0.0833 (   917 PWs)   bands (ev):

    -7.9964  12.0786  12.9705  12.9705  19.3271  19.3271  19.6342  27.1955

          k =-0.1667 0.1667-0.1667 (   917 PWs)   bands (ev):

    -7.4135   9.5603  12.2645  12.2645  20.2510  20.2510  20.7903  27.5601

          k =-0.2500 0.2500-0.2500 (   911 PWs)   bands (ev):

    -6.4509   6.7288  11.5371  11.5371  21.1102  21.1102  21.6413  28.0744

          k =-0.3333 0.3333-0.3333 (   926 PWs)   bands (ev):

    -5.1281   3.9406  10.9600  10.9600  21.5959  21.5959  22.1573  28.5485

          k =-0.4167 0.4167-0.4167 (   911 PWs)   bands (ev):

    -3.5102   1.4018  10.5991  10.5991  21.7524  21.7524  22.4292  28.8132

          k = 0.5000-0.5000 0.5000 (   912 PWs)   bands (ev):

    -2.2438  -0.1777  10.4768  10.4768  21.7742  21.7742  22.5143  28.8818

          k = 0.0000 0.1667 0.0000 (   917 PWs)   bands (ev):

    -7.9314  12.3755  12.3755  12.7102  18.7126  20.0397  20.0397  27.1369

          k =-0.0833 0.2500-0.0833 (   913 PWs)   bands (ev):

    -7.4779  10.4182  11.5660  12.3691  19.0135  21.1175  21.1613  27.1180

          k =-0.1667 0.3333-0.1667 (   913 PWs)   bands (ev):

    -6.6420   7.7366  10.8403  11.7010  19.8725  22.0660  22.0991  27.1892

          k =-0.2500 0.4167-0.2500 (   912 PWs)   bands (ev):

    -5.4385   4.9612  10.3316  10.9483  20.6530  22.5678  22.6850  27.5710

          k =-0.3333 0.5000-0.3333 (   902 PWs)   bands (ev):

    -3.9085   2.3436  10.0897  10.3007  21.1092  22.6154  22.9979  28.2632

          k = 0.5833-0.4167 0.5833 (   905 PWs)   bands (ev):

    -2.3124   0.2378   9.8460  10.1239  21.3986  22.4138  23.1146  28.8140

          k = 0.5000-0.3333 0.5000 (   909 PWs)   bands (ev):

    -2.7949   0.8245   9.6312  10.4208  21.6883  22.1198  23.0629  28.8478

          k = 0.4167-0.2500 0.4167 (   910 PWs)   bands (ev):

    -4.4499   3.1909   9.6829  10.9487  21.7198  21.9467  22.8215  28.3858

          k = 0.3333-0.1667 0.3333 (   913 PWs)   bands (ev):

    -5.8792   5.8870  10.0108  11.6494  21.0818  21.9539  22.3023  27.8071

          k = 0.2500-0.0833 0.2500 (   916 PWs)   bands (ev):

    -6.9626   8.6647  10.6047  12.4062  20.1969  21.3525  21.5454  27.4651

          k = 0.1667-0.0000 0.1667 (   911 PWs)   bands (ev):

    -7.6721  11.0791  11.5384  12.9694  19.4232  20.2426  20.5994  27.3028

          k = 0.0000 0.3333 0.0000 (   913 PWs)   bands (ev):

    -7.1550  10.6984  10.6984  11.1418  18.2639  22.3538  22.3538  26.2147

          k =-0.0833 0.4167-0.0833 (   909 PWs)   bands (ev):

    -6.4491   8.6668   9.9409  10.6683  18.5301  23.4774  23.4968  25.3367

          k =-0.1667 0.5000-0.1667 (   913 PWs)   bands (ev):

    -5.3721   6.1101   9.4257   9.9034  19.3578  24.1904  24.2091  25.1356

          k =-0.2500 0.5833-0.2500 (   904 PWs)   bands (ev):

    -3.9537   3.5443   9.0511   9.2064  20.0178  24.3246  24.5960  26.0060

          k = 0.6667-0.3333 0.6667 (   904 PWs)   bands (ev):

    -2.3200   1.2578   8.3253   9.2959  20.4352  24.0527  24.7509  27.5791

          k = 0.5833-0.2500 0.5833 (   912 PWs)   bands (ev):

    -1.8574   0.7092   7.8310   9.6789  20.8754  23.5613  24.7311  28.7315

          k = 0.5000-0.1667 0.5000 (   904 PWs)   bands (ev):

    -3.4251   2.7692   7.6247  10.3127  21.4176  22.8951  24.5140  28.2768

          k = 0.4167-0.0833 0.4167 (   908 PWs)   bands (ev):

    -4.9382   5.2974   7.7471  11.1124  21.9096  21.9952  23.8991  27.3716

          k = 0.3333 0.0000 0.3333 (   913 PWs)   bands (ev):

    -6.1321   7.6597   8.4550  11.9121  20.9503  22.0275  22.7099  27.1751

          k = 0.0000 0.5000 0.0000 (   902 PWs)   bands (ev):

    -5.8746   8.9100   9.1342   9.1342  17.7932  23.6240  24.9240  24.9240

          k =-0.0833 0.5833-0.0833 (   906 PWs)   bands (ev):

    -4.9284   6.9561   8.5574   8.5684  18.1222  22.6941  25.9481  25.9639

          k =-0.1667 0.6667-0.1667 (   902 PWs)   bands (ev):

    -3.6339   4.7357   7.5514   8.3084  18.9022  23.0269  26.3416  26.5323

          k = 0.7500-0.2500 0.7500 (   908 PWs)   bands (ev):

    -2.0666   2.5423   6.5561   8.3747  19.4172  24.7633  26.1506  26.7683

          k = 0.6667-0.1667 0.6667 (   915 PWs)   bands (ev):

    -0.9003   1.1836   5.7992   8.7574  19.8877  25.5437  26.7558  27.1871

          k = 0.5833-0.0833 0.5833 (   908 PWs)   bands (ev):

    -2.1012   2.6731   5.3804   9.4157  20.5263  24.6006  26.6419  28.2592

          k = 0.5000 0.0000 0.5000 (   907 PWs)   bands (ev):

    -3.6534   4.6802   5.6325  10.2605  21.2872  23.3428  25.7299  27.3667

          k = 0.0000 0.6667 0.0000 (   906 PWs)   bands (ev):

    -4.1148   6.2608   7.9343   7.9343  17.5110  21.0740  27.3864  27.3864

          k =-0.0833 0.7500-0.0833 (   906 PWs)   bands (ev):

    -2.9507   4.7525   7.0198   7.6032  17.9603  20.5646  28.1639  28.2390

          k = 0.8333-0.1667 0.8333 (   914 PWs)   bands (ev):

    -1.4890   3.2117   5.5600   7.6052  18.6092  21.6901  28.1733  28.5958

          k = 0.7500-0.0833 0.7500 (   915 PWs)   bands (ev):

    -0.0443   1.8813   4.2785   7.9380  19.0598  24.1621  27.5056  28.6497

          k = 0.6667-0.0000 0.6667 (   901 PWs)   bands (ev):

    -0.6169   2.4569   3.8031   8.5684  19.6849  26.2646  26.9161  28.4203

          k = 0.0000 0.8333 0.0000 (   906 PWs)   bands (ev):

    -1.9194   3.4253   7.1894   7.1894  17.5717  19.2301  29.3487  29.3487

          k = 0.9167-0.0833 0.9167 (   919 PWs)   bands (ev):

    -0.5798   2.0685   6.3754   7.1082  18.1186  19.2406  29.6264  29.7714

          k = 0.8333 0.0000 0.8333 (   922 PWs)   bands (ev):

     0.7740   1.0942   4.9277   7.3659  18.5119  21.2408  28.9672  29.5872

          k = 0.0000-1.0000 0.0000 (   934 PWs)   bands (ev):

     0.6357   0.6357   6.9374   6.9374  18.1025  18.1025  30.1520  30.1520

          k =-0.1667 0.3333 0.0000 (   915 PWs)   bands (ev):

    -6.8981   9.3354   9.9468  11.9643  19.2555  22.1466  22.3072  26.6685

          k =-0.2500 0.4167-0.0833 (   911 PWs)   bands (ev):

    -5.9413   6.9495   9.1067  11.2942  20.1229  22.6644  23.4373  26.4308

          k =-0.3333 0.5000-0.1667 (   907 PWs)   bands (ev):

    -4.6287   4.3003   8.7214  10.5082  20.9405  22.6953  24.1628  26.9703

          k = 0.5833-0.4167 0.7500 (   905 PWs)   bands (ev):

    -3.0289   1.8360   8.5988   9.8631  21.3626  22.5310  24.5023  28.0818

          k = 0.5000-0.3333 0.6667 (   912 PWs)   bands (ev):

    -1.7908   0.3011   8.6062   9.5900  21.4749  22.4443  24.5994  28.7354

          k =-0.1667 0.5000 0.0000 (   905 PWs)   bands (ev):

    -5.6227   7.6218   8.4363  10.0701  18.8306  24.0822  24.4463  24.9160

          k =-0.2500 0.5833-0.0833 (   906 PWs)   bands (ev):

    -4.4359   5.4676   7.7031   9.3152  19.7444  23.8689  24.7437  26.0059

          k = 0.6667-0.3333 0.8333 (   905 PWs)   bands (ev):

    -2.9351   3.0945   7.3311   8.6757  20.4271  23.9788  25.5760  26.6320

          k = 0.5833-0.2500 0.7500 (   912 PWs)   bands (ev):

    -1.3953   1.1324   6.9319   8.5722  20.8460  23.7474  26.4947  27.5838

          k = 0.5000-0.1667 0.6667 (   912 PWs)   bands (ev):

    -1.8659   1.7087   6.5854   8.9901  21.3241  23.2526  26.3779  28.1595

          k = 0.4167-0.0833 0.5833 (   906 PWs)   bands (ev):

    -3.4722   3.9302   6.4950   9.7250  21.8892  22.4650  25.9498  26.8910

          k = 0.3333 0.0000 0.5000 (   914 PWs)   bands (ev):

    -4.8738   6.1007   7.0144  10.5862  21.1681  22.5627  24.9763  26.1002

          k =-0.1667 0.6667-0.0000 (   902 PWs)   bands (ev):

    -3.8727   5.8015   7.2801   8.0769  18.5603  21.9035  26.4102  27.4180

          k = 0.7500-0.2500 0.9167 (   910 PWs)   bands (ev):

    -2.4911   4.1019   6.2781   7.5339  19.4837  22.3846  26.4015  28.2321

          k = 0.6667-0.1667 0.8333 (   910 PWs)   bands (ev):

    -0.9243   2.2810   5.3087   7.5656  20.0142  24.3355  26.1155  28.2934

          k = 0.5833-0.0833 0.7500 (   909 PWs)   bands (ev):

    -0.5452   1.9287   4.6211   8.0350  20.5275  25.2188  27.0200  27.7357

          k = 0.5000 0.0000 0.6667 (   906 PWs)   bands (ev):

    -2.0240   3.4990   4.6270   8.8066  21.2235  23.9941  26.9721  27.7370

          k = 0.8333-0.1667 1.0000 (   919 PWs)   bands (ev):

    -1.6986   3.4411   6.5843   6.8411  18.6097  20.1657  28.4052  29.2725

          k = 0.7500-0.0833 0.9167 (   914 PWs)   bands (ev):

    -0.2041   2.2064   5.1774   6.8173  19.3970  21.4433  28.1795  29.2150

          k = 0.6667 0.0000 0.8333 (   906 PWs)   bands (ev):

     0.6101   1.7113   3.9490   7.2693  19.8595  24.1189  27.2631  28.4266

          k =-0.1667-1.0000-0.0000 (   922 PWs)   bands (ev):

     0.8043   0.8043   6.4107   6.4107  19.1047  19.1047  29.6389  29.6389

          k = 0.6667-0.3333 1.0000 (   909 PWs)   bands (ev):

    -3.1593   4.7162   5.9266   8.4527  21.0473  23.2191  24.9494  27.5251

          k = 0.5833-0.2500 0.9167 (   909 PWs)   bands (ev):

    -1.6215   2.9198   5.4813   7.6410  21.9675  23.2511  25.6736  28.1706

          k = 0.5000-0.1667 0.8333 (   916 PWs)   bands (ev):

    -0.4617   1.5707   5.4743   7.2965  22.0451  23.4545  27.1748  27.3808

          k = 0.6667-0.1667 1.0000 (   909 PWs)   bands (ev):

    -1.0657   3.2453   5.3326   6.4134  21.1252  22.3722  26.1403  28.8322

          k = 0.5833-0.0833 0.9167 (   909 PWs)   bands (ev):

     0.3572   2.1137   4.5274   6.1206  21.9116  24.0812  25.8748  27.5769

          k = 0.5000 0.0000 0.8333 (   911 PWs)   bands (ev):

    -0.1537   2.5464   4.2278   6.6715  22.3460  24.1882  26.1020  27.2161

          k =-0.3333-1.0000 0.0000 (   912 PWs)   bands (ev):

     1.2196   1.2196   5.3861   5.3861  21.5464  21.5464  27.8955  27.8955

          k =-0.5000-1.0000 0.0000 (   892 PWs)   bands (ev):

     1.4949   1.4949   4.8450   4.8450  23.8530  23.8530  25.8067  25.8067

     highest occupied, lowest unoccupied level (ev):    13.2956   17.5110

!    total energy              =     -22.88941275 Ry
     Harris-Foulkes estimate   =     -22.88941275 Ry
     estimated scf accuracy    <          9.7E-17 Ry

     The total energy is the sum of the following terms:

     one-electron contribution =       8.01426873 Ry
     hartree contribution      =       1.90770301 Ry
     xc contribution           =      -7.09654107 Ry
     ewald contribution        =     -25.71484342 Ry

     convergence has been achieved in  11 iterations

     Forces acting on atoms (cartesian axes, Ry/au):

     atom    1 type  1   force =    -0.00000000   -0.00000000    0.00000000
     atom    2 type  1   force =    -0.00000000   -0.00000000   -0.00000000

     Total force =     0.000000     Total SCF correction =     0.000000


     Computing stress (Cartesian axis) and pressure

          total   stress  (Ry/bohr**3)                   (kbar)     P= -107.32
  -0.00072952  -0.00000000   0.00000000       -107.32     -0.00      0.00
  -0.00000000  -0.00072952  -0.00000000         -0.00   -107.32     -0.00
   0.00000000   0.00000000  -0.00072952          0.00      0.00   -107.32


     BFGS Geometry Optimization

     number of scf cycles    =   1
     number of bfgs steps    =   0

     enthalpy new            =     -22.8894127537 Ry

     new trust radius        =       0.0316536710 bohr
     new conv_thr            =            1.0E-15 Ry

     new unit-cell volume =     71.26051 a.u.^3 (    10.55972 Ang^3 )
     density =      3.77751 g/cm^3

CELL_PARAMETERS (alat=  6.70342551)
  -0.490880964   0.000000000   0.490880964
  -0.000000000   0.490880964   0.490880964
  -0.490880964   0.490880964  -0.000000000

ATOMIC_POSITIONS (crystal)
C        0.000000000  -0.000000000  -0.000000000
C        0.250000000   0.250000000   0.250000000



     Writing output data file c.save
     NEW-OLD atomic charge density approx. for the potential
     extrapolated charge    7.54583, renormalised to    8.00000

     total cpu time spent up to now is        8.1 secs

     per-process dynamical memory:    16.1 Mb

     Self-consistent Calculation

     iteration #  1     ecut=    80.00 Ry     beta=0.70
     Davidson diagonalization with overlap
     ethr =  1.00E-06,  avg # of iterations =  4.1

     total cpu time spent up to now is        9.1 secs

     total energy              =     -22.88598063 Ry
     Harris-Foulkes estimate   =     -22.56674230 Ry
     estimated scf accuracy    <       0.00154774 Ry

     iteration #  2     ecut=    80.00 Ry     beta=0.70
     Davidson diagonalization with overlap
     ethr =  1.93E-05,  avg # of iterations =  3.2

     total cpu time spent up to now is       10.0 secs

     total energy              =     -22.88895510 Ry
     Harris-Foulkes estimate   =     -22.88905557 Ry
     estimated scf accuracy    <       0.00033890 Ry

     iteration #  3     ecut=    80.00 Ry     beta=0.70
     Davidson diagonalization with overlap
     ethr =  4.24E-06,  avg # of iterations =  1.0

     total cpu time spent up to now is       10.4 secs

     total energy              =     -22.88889421 Ry
     Harris-Foulkes estimate   =     -22.88896133 Ry
     estimated scf accuracy    <       0.00012460 Ry

     iteration #  4     ecut=    80.00 Ry     beta=0.70
     Davidson diagonalization with overlap
     ethr =  1.56E-06,  avg # of iterations =  2.0

     total cpu time spent up to now is       10.9 secs

     total energy              =     -22.88890629 Ry
     Harris-Foulkes estimate   =     -22.88890621 Ry
     estimated scf accuracy    <       0.00000111 Ry

     iteration #  5     ecut=    80.00 Ry     beta=0.70
     Davidson diagonalization with overlap
     ethr =  1.38E-08,  avg # of iterations =  2.8

     total cpu time spent up to now is       11.7 secs

     total energy              =     -22.88890662 Ry
     Harris-Foulkes estimate   =     -22.88890670 Ry
     estimated scf accuracy    <       0.00000015 Ry

     iteration #  6     ecut=    80.00 Ry     beta=0.70
     Davidson diagonalization with overlap
     ethr =  1.93E-09,  avg # of iterations =  2.0

     total cpu time spent up to now is       12.3 secs

     total energy              =     -22.88890663 Ry
     Harris-Foulkes estimate   =     -22.88890663 Ry
     estimated scf accuracy    <          2.4E-09 Ry

     iteration #  7     ecut=    80.00 Ry     beta=0.70
     Davidson diagonalization with overlap
     ethr =  2.97E-11,  avg # of iterations =  2.4

     total cpu time spent up to now is       13.0 secs

     total energy              =     -22.88890663 Ry
     Harris-Foulkes estimate   =     -22.88890663 Ry
     estimated scf accuracy    <          2.4E-11 Ry

     iteration #  8     ecut=    80.00 Ry     beta=0.70
     Davidson diagonalization with overlap
     ethr =  2.99E-13,  avg # of iterations =  2.2

     total cpu time spent up to now is       13.7 secs

     total energy              =     -22.88890663 Ry
     Harris-Foulkes estimate   =     -22.88890663 Ry
     estimated scf accuracy    <          1.9E-12 Ry

     iteration #  9     ecut=    80.00 Ry     beta=0.70
     Davidson diagonalization with overlap
     ethr =  1.00E-13,  avg # of iterations =  1.5

     total cpu time spent up to now is       14.1 secs

     total energy              =     -22.88890663 Ry
     Harris-Foulkes estimate   =     -22.88890663 Ry
     estimated scf accuracy    <          9.6E-15 Ry

     iteration # 10     ecut=    80.00 Ry     beta=0.70
     Davidson diagonalization with overlap
     ethr =  1.00E-13,  avg # of iterations =  1.0

     total cpu time spent up to now is       14.5 secs

     total energy              =     -22.88890663 Ry
     Harris-Foulkes estimate   =     -22.88890663 Ry
     estimated scf accuracy    <          6.1E-15 Ry

     iteration # 11     ecut=    80.00 Ry     beta=0.70
     Davidson diagonalization with overlap
     ethr =  1.00E-13,  avg # of iterations =  1.0

     total cpu time spent up to now is       14.9 secs

     End of self-consistent calculation

          k = 0.0000 0.0000 0.0000 (   941 PWs)   bands (ev):

    -7.9269  14.3103  14.3103  14.3103  20.0753  20.0753  20.0753  29.3560

          k =-0.0849 0.0849-0.0849 (   917 PWs)   bands (ev):

    -7.7245  13.0375  13.9649  13.9649  20.5278  20.5278  20.8760  29.4393

          k =-0.1698 0.1698-0.1698 (   917 PWs)   bands (ev):

    -7.1194  10.4186  13.2195  13.2195  21.5020  21.5020  22.1695  29.6733

          k =-0.2546 0.2546-0.2546 (   911 PWs)   bands (ev):

    -6.1194   7.4799  12.4556  12.4556  22.3936  22.3936  23.1769  29.9899

          k =-0.3395 0.3395-0.3395 (   926 PWs)   bands (ev):

    -4.7418   4.5837  11.8516  11.8516  22.8778  22.8778  23.8298  30.2564

          k =-0.4244 0.4244-0.4244 (   911 PWs)   bands (ev):

    -3.0423   1.9305  11.4746  11.4746  23.0171  23.0171  24.1909  30.3792

          k = 0.5093-0.5093 0.5093 (   912 PWs)   bands (ev):

    -1.6485   0.2123  11.3470  11.3470  23.0303  23.0303  24.3066  30.4023

          k = 0.0000 0.1698 0.0000 (   917 PWs)   bands (ev):

    -7.6571  13.3302  13.3302  13.7261  19.8879  21.2879  21.2879  29.3423

          k =-0.0849 0.2546-0.0849 (   913 PWs)   bands (ev):

    -7.1864  11.3087  12.4756  13.3588  20.2121  22.4268  22.5056  29.1531

          k =-0.1698 0.3395-0.1698 (   913 PWs)   bands (ev):

    -6.3182   8.5272  11.7139  12.6555  21.1139  23.4165  23.5770  29.0063

          k =-0.2546 0.4244-0.2546 (   912 PWs)   bands (ev):

    -5.0660   5.6463  11.1828  11.8646  21.9158  23.9201  24.2952  29.2455

          k =-0.3395 0.5093-0.3395 (   902 PWs)   bands (ev):

    -3.4659   2.9194  10.9325  11.1835  22.3652  23.9416  24.7125  29.8720

          k = 0.5942-0.4244 0.5942 (   905 PWs)   bands (ev):

    -1.7483   0.6739  10.7039  10.9719  22.6505  23.7132  24.8822  30.3945

          k = 0.5093-0.3395 0.5093 (   909 PWs)   bands (ev):

    -2.2813   1.3148  10.4749  11.2863  22.9589  23.4061  24.8188  30.4493

          k = 0.4244-0.2546 0.4244 (   910 PWs)   bands (ev):

    -4.0338   3.8042  10.5244  11.8425  23.0041  23.2587  24.4990  30.0674

          k = 0.3395-0.1698 0.3395 (   913 PWs)   bands (ev):

    -5.5250   6.6082  10.8632  12.5798  22.3559  23.2994  23.8578  29.6163

          k = 0.2546-0.0849 0.2546 (   916 PWs)   bands (ev):

    -6.6513   9.4926  11.4800  13.3766  21.4364  22.6964  22.9601  29.4464

          k = 0.1698-0.0000 0.1698 (   911 PWs)   bands (ev):

    -7.3879  12.0090  12.4472  13.9695  20.6235  21.5269  21.9007  29.4571

          k = 0.0000 0.3395 0.0000 (   913 PWs)   bands (ev):

    -6.8513  11.5595  11.5595  12.1437  19.4399  23.7368  23.7368  27.9804

          k =-0.0849 0.4244-0.0849 (   909 PWs)   bands (ev):

    -6.1181   9.4973  10.7639  11.6075  19.7255  24.9392  24.9498  26.8895

          k =-0.1698 0.5093-0.1698 (   913 PWs)   bands (ev):

    -4.9982   6.8482  10.2251  10.8002  20.5845  25.6531  25.7529  26.6491

          k =-0.2546 0.5942-0.2546 (   904 PWs)   bands (ev):

    -3.5182   4.1792   9.9034   9.9980  21.2492  25.7681  26.2507  27.5426

          k = 0.6791-0.3395 0.6791 (   904 PWs)   bands (ev):

    -1.7883   1.7723   9.1388  10.0952  21.6631  25.4627  26.5022  29.1719

          k = 0.5942-0.2546 0.5942 (   912 PWs)   bands (ev):

    -1.2774   1.1719   8.6159  10.5006  22.1206  24.9434  26.4962  30.4197

          k = 0.5093-0.1698 0.5093 (   904 PWs)   bands (ev):

    -2.9626   3.3674   8.3932  11.1695  22.7090  24.2555  26.2077  30.0284

          k = 0.4244-0.0849 0.4244 (   908 PWs)   bands (ev):

    -4.5456   6.0064   8.5099  12.0131  23.2712  23.3239  25.4524  29.1757

          k = 0.3395 0.0000 0.3395 (   913 PWs)   bands (ev):

    -5.7883   8.4815   9.2183  12.8571  22.2290  23.4388  24.1522  29.0315

          k = 0.0000 0.5093 0.0000 (   902 PWs)   bands (ev):

    -5.5216   9.8593   9.9157   9.9157  18.9658  24.9957  26.4529  26.4529

          k =-0.0849 0.5942-0.0849 (   906 PWs)   bands (ev):

    -4.5379   7.7739   9.3229   9.3690  19.3097  23.9873  27.5294  27.5892

          k =-0.1698 0.6791-0.1698 (   902 PWs)   bands (ev):

    -3.1889   5.4549   8.3232   9.0519  20.1042  24.3407  27.9271  28.2650

          k = 0.7639-0.2546 0.7639 (   908 PWs)   bands (ev):

    -1.5423   3.1511   7.2861   9.1237  20.6138  26.1866  27.7081  28.5749

          k = 0.6791-0.1698 0.6791 (   915 PWs)   bands (ev):

    -0.2640   1.6688   6.4945   9.5278  21.0933  27.0636  28.6307  28.7291

          k = 0.5942-0.0849 0.5942 (   908 PWs)   bands (ev):

    -1.5738   3.2808   6.0476  10.2220  21.7641  26.0756  28.4271  30.0876

          k = 0.5093 0.0000 0.5093 (   907 PWs)   bands (ev):

    -3.2055   5.4150   6.2696  11.1132  22.5815  24.7518  27.3464  29.2330

          k = 0.0000 0.6791 0.0000 (   906 PWs)   bands (ev):

    -3.6923   7.1165   8.6573   8.6573  18.6759  22.2911  29.0632  29.0632

          k =-0.0849 0.7639-0.0849 (   906 PWs)   bands (ev):

    -2.4803   5.5499   7.6974   8.3109  19.1359  21.7713  29.8849  29.9994

          k = 0.8488-0.1698 0.8488 (   914 PWs)   bands (ev):

    -0.9508   3.9477   6.1631   8.3143  19.7833  22.9792  29.8846  30.4321

          k = 0.7639-0.0849 0.7639 (   915 PWs)   bands (ev):

     0.6020   2.5145   4.8235   8.6651  20.2367  25.5914  29.1705  30.5302

          k = 0.6791 0.0000 0.6791 (   901 PWs)   bands (ev):

    -0.0013   3.1281   4.3155   9.3289  20.8833  27.8504  28.5718  30.3292

          k = 0.0000 0.8488 0.0000 (   906 PWs)   bands (ev):

    -1.4077   4.1635   7.8770   7.8770  18.7277  20.3932  31.1601  31.1601

          k = 0.9337-0.0849 0.9337 (   919 PWs)   bands (ev):

    -0.0097   2.7539   7.0202   7.7924  19.2786  20.4280  31.4567  31.6358

          k = 0.8488 0.0000 0.8488 (   922 PWs)   bands (ev):

     1.4406   1.7263   5.4838   8.0635  19.6725  22.5295  30.7447  31.4823

          k = 0.0000-1.0186 0.0000 (   934 PWs)   bands (ev):

     1.2546   1.2546   7.6132   7.6132  19.2540  19.2540  32.0269  32.0269

          k =-0.1698 0.3395 0.0000 (   915 PWs)   bands (ev):

    -6.5843  10.2064  10.7752  12.9300  20.4722  23.5493  23.6986  28.4736

          k =-0.2546 0.4244-0.0849 (   911 PWs)   bands (ev):

    -5.5900   7.7185   9.9181  12.2202  21.3802  24.0962  24.9187  28.0986

          k =-0.3395 0.5093-0.1698 (   907 PWs)   bands (ev):

    -4.2225   4.9636   9.5263  11.3876  22.2124  24.1139  25.7596  28.5986

          k = 0.5942-0.4244 0.7639 (   905 PWs)   bands (ev):

    -2.5419   2.3868   9.4103  10.6999  22.6004  23.9621  26.1860  29.7189

          k = 0.5093-0.3395 0.6791 (   912 PWs)   bands (ev):

    -1.1822   0.7195   9.4278  10.4042  22.6859  23.8913  26.3122  30.3888

          k =-0.1698 0.5093 0.0000 (   905 PWs)   bands (ev):

    -5.2593   8.4534   9.1916  10.9488  20.0447  25.4178  26.0529  26.4497

          k =-0.2546 0.5942-0.0849 (   906 PWs)   bands (ev):

    -4.0239   6.2006   8.4617  10.1365  20.9911  25.1423  26.4305  27.6147

          k = 0.6791-0.3395 0.8488 (   905 PWs)   bands (ev):

    -2.4537   3.7194   8.1030   9.4417  21.6686  25.3701  27.2636  28.2757

          k = 0.5942-0.2546 0.7639 (   912 PWs)   bands (ev):

    -0.7991   1.6245   7.6937   9.3264  22.0736  25.2153  28.3073  29.1971

          k = 0.5093-0.1698 0.6791 (   912 PWs)   bands (ev):

    -1.3154   2.2503   7.3213   9.7735  22.5601  24.7088  28.1659  29.8817

          k = 0.4244-0.0849 0.5942 (   906 PWs)   bands (ev):

    -3.0159   4.5938   7.2103  10.5534  23.1620  23.8701  27.6617  28.5635

          k = 0.3395 0.0000 0.5093 (   914 PWs)   bands (ev):

    -4.4793   6.8805   7.7129  11.4663  22.4797  23.9334  26.5288  27.7898

          k =-0.1698 0.6791 0.0000 (   902 PWs)   bands (ev):

    -3.4394   6.6245   7.9794   8.8142  19.7662  23.1507  28.0705  29.1032

          k = 0.7639-0.2546 0.9337 (   910 PWs)   bands (ev):

    -1.9968   4.8434   6.9586   8.2292  20.7082  23.6648  28.0883  29.9956

          k = 0.6791-0.1698 0.8488 (   910 PWs)   bands (ev):

    -0.3385   2.9026   5.9600   8.2675  21.2297  25.7159  27.8092  30.1091

          k = 0.5942-0.0849 0.7639 (   909 PWs)   bands (ev):

     0.0847   2.5029   5.2382   8.7666  21.7512  26.7171  28.7329  29.5534

          k = 0.5093 0.0000 0.6791 (   906 PWs)   bands (ev):

    -1.4976   4.2070   5.2070   9.5820  22.4758  25.4433  28.7690  29.5209

          k = 0.8488-0.1698 1.0186 (   919 PWs)   bands (ev):

    -1.1747   4.1927   7.2472   7.4992  19.8062  21.3669  30.1746  31.0907

          k = 0.7639-0.0849 0.9337 (   914 PWs)   bands (ev):

     0.3952   2.9167   5.7484   7.4837  20.5978  22.7281  29.9382  31.0621

          k = 0.6791-0.0000 0.8488 (   906 PWs)   bands (ev):

     1.3066   2.3700   4.4318   7.9610  21.0655  25.5316  28.9484  30.2741

          k =-0.1698-1.0186-0.0000 (   922 PWs)   bands (ev):

     1.4378   1.4378   7.0581   7.0581  20.2962  20.2962  31.4893  31.4893

          k = 0.6791-0.3395 1.0186 (   909 PWs)   bands (ev):

    -2.6922   5.4788   6.5712   9.2128  22.3576  24.4373  26.6821  29.2384

          k = 0.5942-0.2546 0.9337 (   909 PWs)   bands (ev):

    -1.0758   3.5665   6.1542   8.3453  23.2358  24.6124  27.3978  29.9669

          k = 0.5093-0.1698 0.8488 (   916 PWs)   bands (ev):

     0.1884   2.0967   6.1684   7.9728  23.2605  24.9431  28.9653  29.1038

          k = 0.6791-0.1698 1.0186 (   909 PWs)   bands (ev):

    -0.5031   4.0046   5.9365   7.0345  22.4237  23.6250  27.8530  30.6534

          k = 0.5942-0.0849 0.9337 (   909 PWs)   bands (ev):

     1.0186   2.7974   5.0822   6.7338  23.1832  25.4143  27.6135  29.3337

          k = 0.5093 0.0000 0.8488 (   911 PWs)   bands (ev):

     0.4777   3.2562   4.7570   7.3222  23.5993  25.6006  27.8435  28.9432

          k =-0.3395-1.0186 0.0000 (   912 PWs)   bands (ev):

     1.8971   1.8971   5.9662   5.9662  22.8279  22.8279  29.6569  29.6569

          k =-0.5093-1.0186 0.0000 (   892 PWs)   bands (ev):

     2.2122   2.2122   5.3750   5.3750  25.1286  25.1286  27.5608  27.5608

     highest occupied, lowest unoccupied level (ev):    14.3103   18.6759

!    total energy              =     -22.88890663 Ry
     Harris-Foulkes estimate   =     -22.88890663 Ry
     estimated scf accuracy    <          2.5E-17 Ry

     The total energy is the sum of the following terms:

     one-electron contribution =       8.63898724 Ry
     hartree contribution      =       1.85446849 Ry
     xc contribution           =      -7.18981744 Ry
     ewald contribution        =     -26.19254492 Ry

     convergence has been achieved in  11 iterations

     Forces acting on atoms (cartesian axes, Ry/au):

     atom    1 type  1   force =     0.00000000    0.00000000    0.00000000
     atom    2 type  1   force =     0.00000000    0.00000000    0.00000000

     Total force =     0.000000     Total SCF correction =     0.000000


     Computing stress (Cartesian axis) and pressure

          total   stress  (Ry/bohr**3)                   (kbar)     P=  153.75
   0.00104519   0.00000000   0.00000000        153.75      0.00      0.00
   0.00000000   0.00104519   0.00000000          0.00    153.75      0.00
   0.00000000   0.00000000   0.00104519          0.00      0.00    153.75


     number of scf cycles    =   2
     number of bfgs steps    =   1

     enthalpy old            =     -22.8894127537 Ry
     enthalpy new            =     -22.8889066296 Ry

     CASE: enthalpy_new > enthalpy_old

     new trust radius        =       0.0134218843 bohr
     new conv_thr            =            1.0E-15 Ry

     new unit-cell volume =     73.55660 a.u.^3 (    10.89996 Ang^3 )
     density =      3.65960 g/cm^3

CELL_PARAMETERS (alat=  6.70342551)
  -0.496097569   0.000000000   0.496097569
  -0.000000000   0.496097569   0.496097569
  -0.496097569   0.496097569  -0.000000000

ATOMIC_POSITIONS (crystal)
C        0.000000000  -0.000000000  -0.000000000
C        0.250000000   0.250000000   0.250000000



     Writing output data file c.save
     NEW-OLD atomic charge density approx. for the potential
     extrapolated charge    8.24972, renormalised to    8.00000

     total cpu time spent up to now is       15.0 secs

     per-process dynamical memory:    18.9 Mb

     Self-consistent Calculation

     iteration #  1     ecut=    80.00 Ry     beta=0.70
     Davidson diagonalization with overlap
     ethr =  1.00E-06,  avg # of iterations =  3.9

     total cpu time spent up to now is       16.0 secs

     total energy              =     -22.88916913 Ry
     Harris-Foulkes estimate   =     -23.06395190 Ry
     estimated scf accuracy    <       0.00038962 Ry

     iteration #  2     ecut=    80.00 Ry     beta=0.70
     Davidson diagonalization with overlap
     ethr =  4.87E-06,  avg # of iterations =  3.4

     total cpu time spent up to now is       17.0 secs

     total energy              =     -22.89009242 Ry
     Harris-Foulkes estimate   =     -22.89013057 Ry
     estimated scf accuracy    <       0.00013266 Ry

     iteration #  3     ecut=    80.00 Ry     beta=0.70
     Davidson diagonalization with overlap
     ethr =  1.66E-06,  avg # of iterations =  1.0

     total cpu time spent up to now is       17.3 secs

     total energy              =     -22.89006521 Ry
     Harris-Foulkes estimate   =     -22.89009450 Ry
     estimated scf accuracy    <       0.00005406 Ry

     iteration #  4     ecut=    80.00 Ry     beta=0.70
     Davidson diagonalization with overlap
     ethr =  6.76E-07,  avg # of iterations =  2.0

     total cpu time spent up to now is       17.9 secs

     total energy              =     -22.89006972 Ry
     Harris-Foulkes estimate   =     -22.89007019 Ry
     estimated scf accuracy    <       0.00000082 Ry

     iteration #  5     ecut=    80.00 Ry     beta=0.70
     Davidson diagonalization with overlap
     ethr =  1.02E-08,  avg # of iterations =  2.7

     total cpu time spent up to now is       18.7 secs

     total energy              =     -22.89006992 Ry
     Harris-Foulkes estimate   =     -22.89006996 Ry
     estimated scf accuracy    <       0.00000006 Ry

     iteration #  6     ecut=    80.00 Ry     beta=0.70
     Davidson diagonalization with overlap
     ethr =  7.98E-10,  avg # of iterations =  2.1

     total cpu time spent up to now is       19.3 secs

     total energy              =     -22.89006993 Ry
     Harris-Foulkes estimate   =     -22.89006993 Ry
     estimated scf accuracy    <          2.0E-09 Ry

     iteration #  7     ecut=    80.00 Ry     beta=0.70
     Davidson diagonalization with overlap
     ethr =  2.46E-11,  avg # of iterations =  2.4

     total cpu time spent up to now is       20.0 secs

     total energy              =     -22.89006993 Ry
     Harris-Foulkes estimate   =     -22.89006993 Ry
     estimated scf accuracy    <          1.2E-11 Ry

     iteration #  8     ecut=    80.00 Ry     beta=0.70
     Davidson diagonalization with overlap
     ethr =  1.52E-13,  avg # of iterations =  2.1

     total cpu time spent up to now is       20.6 secs

     total energy              =     -22.89006993 Ry
     Harris-Foulkes estimate   =     -22.89006993 Ry
     estimated scf accuracy    <          1.6E-12 Ry

     iteration #  9     ecut=    80.00 Ry     beta=0.70
     Davidson diagonalization with overlap
     ethr =  1.00E-13,  avg # of iterations =  1.3

     total cpu time spent up to now is       21.0 secs

     total energy              =     -22.89006993 Ry
     Harris-Foulkes estimate   =     -22.89006993 Ry
     estimated scf accuracy    <          7.0E-15 Ry

     iteration # 10     ecut=    80.00 Ry     beta=0.70
     Davidson diagonalization with overlap
     ethr =  1.00E-13,  avg # of iterations =  1.0

     total cpu time spent up to now is       21.4 secs

     total energy              =     -22.89006993 Ry
     Harris-Foulkes estimate   =     -22.89006993 Ry
     estimated scf accuracy    <          4.1E-15 Ry

     iteration # 11     ecut=    80.00 Ry     beta=0.70
     Davidson diagonalization with overlap
     ethr =  1.00E-13,  avg # of iterations =  1.0

     total cpu time spent up to now is       21.8 secs

     End of self-consistent calculation

          k = 0.0000 0.0000 0.0000 (   941 PWs)   bands (ev):

    -8.0807  13.7223  13.7223  13.7223  19.3955  19.3955  19.3955  28.0319

          k =-0.0840 0.0840-0.0840 (   917 PWs)   bands (ev):

    -7.8825  12.4820  13.3887  13.3887  19.8326  19.8326  20.1569  28.1411

          k =-0.1680 0.1680-0.1680 (   917 PWs)   bands (ev):

    -7.2902   9.9215  12.6661  12.6661  20.7777  20.7777  21.3713  28.4518

          k =-0.2520 0.2520-0.2520 (   911 PWs)   bands (ev):

    -6.3117   7.0448  11.9233  11.9233  21.6506  21.6506  22.2887  28.8840

          k =-0.3360 0.3360-0.3360 (   926 PWs)   bands (ev):

    -4.9657   4.2109  11.3349  11.3349  22.1360  22.1360  22.8622  29.2714

          k =-0.4199 0.4199-0.4199 (   911 PWs)   bands (ev):

    -3.3132   1.6236  10.9672  10.9672  22.2854  22.2854  23.1710  29.4759

          k = 0.5039-0.5039 0.5039 (   912 PWs)   bands (ev):

    -1.9941  -0.0133  10.8427  10.8427  22.3037  22.3037  23.2687  29.5250

          k = 0.0000 0.1680 0.0000 (   917 PWs)   bands (ev):

    -7.8165  12.7770  12.7770  13.1375  19.2073  20.5651  20.5651  28.0677

          k =-0.0840 0.2520-0.0840 (   913 PWs)   bands (ev):

    -7.3558  10.7931  11.9486  12.7852  19.5181  21.6686  21.7273  27.9803

          k =-0.1680 0.3360-0.1680 (   913 PWs)   bands (ev):

    -6.5062   8.0693  11.2077  12.1023  20.3952  22.6346  22.7221  27.9599

          k =-0.2520 0.4199-0.2520 (   912 PWs)   bands (ev):

    -5.2820   5.2494  10.6896  11.3336  21.1856  23.1373  23.3636  28.2792

          k =-0.3360 0.5039-0.3360 (   902 PWs)   bands (ev):

    -3.7222   2.5854  10.4441  10.6719  21.6397  23.1743  23.7193  28.9427

          k = 0.5879-0.4199 0.5879 (   905 PWs)   bands (ev):

    -2.0751   0.4209  10.2067  10.4804  21.9279  22.9615  23.8573  29.4817

          k = 0.5039-0.3360 0.5039 (   909 PWs)   bands (ev):

    -2.5786   1.0301   9.9859  10.7847  22.2258  22.6619  23.8004  29.5245

          k = 0.4199-0.2520 0.4199 (   910 PWs)   bands (ev):

    -4.2749   3.4486  10.0368  11.3245  22.2610  22.5021  23.5260  29.0962

          k = 0.3360-0.1680 0.3360 (   913 PWs)   bands (ev):

    -5.7305   6.1904  10.3692  12.0406  21.6184  22.5231  22.9559  28.5716

          k = 0.2520-0.0840 0.2520 (   916 PWs)   bands (ev):

    -6.8321   9.0132  10.9728  12.8142  20.7188  21.9190  22.1408  28.3026

          k = 0.1680-0.0000 0.1680 (   911 PWs)   bands (ev):

    -7.5530  11.4705  11.9206  13.3899  19.9286  20.7830  21.1475  28.2121

          k = 0.0000 0.3360 0.0000 (   913 PWs)   bands (ev):

    -7.0277  11.0606  11.0606  11.5634  18.7587  22.9358  22.9358  26.9677

          k =-0.0840 0.4199-0.0840 (   909 PWs)   bands (ev):

    -6.3102   9.0168  10.2870  11.0628  19.0331  24.0983  24.1039  25.9967

          k =-0.1680 0.5039-0.1680 (   913 PWs)   bands (ev):

    -5.2150   6.4209   9.7619  10.2803  19.8743  24.8063  24.8675  25.7684

          k =-0.2520 0.5879-0.2520 (   904 PWs)   bands (ev):

    -3.7705   3.8113   9.4093   9.5393  20.5372  24.9327  25.2991  26.6476

          k = 0.6719-0.3360 0.6719 (   904 PWs)   bands (ev):

    -2.0961   1.4739   8.6672   9.6320  20.9538  24.6469  25.4888  28.2489

          k = 0.5879-0.2520 0.5879 (   912 PWs)   bands (ev):

    -1.6134   0.9038   8.1609  10.0244  21.4018  24.1437  25.4731  29.4433

          k = 0.5039-0.1680 0.5039 (   904 PWs)   bands (ev):

    -3.2304   3.0207   7.9477  10.6729  21.9639  23.4682  25.2262  29.0144

          k = 0.4199-0.0840 0.4199 (   908 PWs)   bands (ev):

    -4.7732   5.5959   8.0676  11.4911  22.4855  22.5547  24.5526  28.1313

          k = 0.3360 0.0000 0.3360 (   913 PWs)   bands (ev):

    -5.9878   8.0058   8.7758  12.3094  21.4887  22.6234  23.3167  27.9590

          k = 0.0000 0.5039 0.0000 (   902 PWs)   bands (ev):

    -5.7264   9.3096   9.4629   9.4629  18.2863  24.2069  25.5675  25.5675

          k =-0.0840 0.5879-0.0840 (   906 PWs)   bands (ev):

    -4.7643   7.3014   8.8857   8.8977  18.6217  23.2426  26.6137  26.6473

          k =-0.1680 0.6719-0.1680 (   902 PWs)   bands (ev):

    -3.4467   5.0389   7.8753   8.6211  19.4084  23.5832  27.0092  27.2597

          k = 0.7559-0.2520 0.7559 (   908 PWs)   bands (ev):

    -1.8459   2.7987   6.8625   8.6897  19.9219  25.3662  26.8066  27.5250

          k = 0.6719-0.1680 0.6719 (   915 PWs)   bands (ev):

    -0.6332   1.3887   6.0910   9.0814  20.3966  26.1840  27.5447  27.8372

          k = 0.5879-0.0840 0.5879 (   908 PWs)   bands (ev):

    -1.8791   2.9291   5.6602   9.7548  21.0492  25.2218  27.3936  29.0281

          k = 0.5039 0.0000 0.5039 (   907 PWs)   bands (ev):

    -3.4649   4.9897   5.8998  10.6190  21.8343  23.9361  26.4106  28.1511

          k = 0.0000 0.6719 0.0000 (   906 PWs)   bands (ev):

    -3.9372   6.6211   8.2384   8.2384  18.0009  21.5888  28.0921  28.0921

          k =-0.0840 0.7559-0.0840 (   906 PWs)   bands (ev):

    -2.7529   5.0881   7.3047   7.9008  18.4549  21.0743  28.8882  28.9794

          k = 0.8399-0.1680 0.8399 (   914 PWs)   bands (ev):

    -1.2625   3.5214   5.8134   7.9034  19.1038  22.2341  28.8937  29.3674

          k = 0.7559-0.0840 0.7559 (   915 PWs)   bands (ev):

     0.2276   2.1484   4.5069   8.2438  19.5560  24.7656  28.2065  29.4394

          k = 0.6719 0.0000 0.6719 (   901 PWs)   bands (ev):

    -0.3578   2.7395   4.0180   8.8882  20.1906  26.9323  27.6166  29.2220

          k = 0.0000 0.8399 0.0000 (   906 PWs)   bands (ev):

    -1.7041   3.7361   7.4786   7.4786  18.0580  19.7207  30.1108  30.1108

          k = 0.9239-0.0840 0.9239 (   919 PWs)   bands (ev):

    -0.3398   2.3570   6.6464   7.3959  18.6070  19.7410  30.3964  30.5555

          k = 0.8399 0.0000 0.8399 (   922 PWs)   bands (ev):

     1.0545   1.3603   5.1614   7.6592  19.0009  21.7841  29.7152  30.3837

          k = 0.0000-1.0079 0.0000 (   934 PWs)   bands (ev):

     0.8963   0.8963   7.2216   7.2216  18.5874  18.5874  30.9407  30.9407

          k =-0.1680 0.3360 0.0000 (   915 PWs)   bands (ev):

    -6.7665   9.7023  10.2951  12.3702  19.7676  22.7379  22.8927  27.4357

          k =-0.2520 0.4199-0.0840 (   911 PWs)   bands (ev):

    -5.7938   7.2734   9.4478  11.6835  20.6523  23.2696  24.0604  27.1368

          k =-0.3360 0.5039-0.1680 (   907 PWs)   bands (ev):

    -4.4579   4.5793   9.0599  10.8779  21.4769  23.2956  24.8339  27.6566

          k = 0.5879-0.4199 0.7559 (   905 PWs)   bands (ev):

    -2.8238   2.0674   8.9400  10.2149  21.8851  23.1367  25.2084  28.7717

          k = 0.5039-0.3360 0.6719 (   912 PWs)   bands (ev):

    -1.5355   0.4776   8.9516   9.9324  21.9856  23.0576  25.3169  29.4328

          k =-0.1680 0.5039 0.0000 (   905 PWs)   bands (ev):

    -5.4701   7.9724   8.7538  10.4392  19.3414  24.6486  25.1235  25.5615

          k =-0.2520 0.5879-0.0840 (   906 PWs)   bands (ev):

    -4.2627   5.7765   8.0218   9.6602  20.2694  24.4066  25.4563  26.6818

          k = 0.6719-0.3360 0.8399 (   905 PWs)   bands (ev):

    -2.7325   3.3576   7.6554   8.9977  20.9508  24.5674  26.2885  27.3198

          k = 0.5879-0.2520 0.7559 (   912 PWs)   bands (ev):

    -1.1446   1.3396   7.2518   8.8894  21.3645  24.3670  27.2555  28.2637

          k = 0.5039-0.1680 0.6719 (   912 PWs)   bands (ev):

    -1.6341   1.9365   6.8945   9.3195  21.8464  23.8666  27.1289  28.8848

          k = 0.4199-0.0840 0.5879 (   906 PWs)   bands (ev):

    -3.2801   4.2097   6.7953  10.0733  22.4268  23.0577  26.6707  27.5945

          k = 0.3360 0.0000 0.5039 (   914 PWs)   bands (ev):

    -4.7080   6.4291   7.3078  10.9562  21.7203  23.1428  25.6297  26.8125

          k =-0.1680 0.6719 0.0000 (   902 PWs)   bands (ev):

    -3.6905   6.1482   7.5740   8.3868  19.0676  22.4315  27.1084  28.1272

          k = 0.7559-0.2520 0.9239 (   910 PWs)   bands (ev):

    -2.2831   4.4145   6.5635   7.8264  19.9995  22.9258  27.1108  28.9737

          k = 0.6719-0.1680 0.8399 (   910 PWs)   bands (ev):

    -0.6776   2.5432   5.5815   7.8607  20.5269  24.9187  26.8280  29.0559

          k = 0.5879-0.0840 0.7559 (   909 PWs)   bands (ev):

    -0.2802   2.1714   4.8794   8.3426  21.0441  25.8512  27.7423  28.4984

          k = 0.5039 0.0000 0.6719 (   906 PWs)   bands (ev):

    -1.8023   3.7972   4.8702   9.1326  21.7527  24.6046  27.7277  28.4876

          k = 0.8399-0.1680 1.0079 (   919 PWs)   bands (ev):

    -1.4781   3.7574   6.8629   7.1179  19.1133  20.6727  29.1494  30.0374

          k = 0.7559-0.0840 0.9239 (   914 PWs)   bands (ev):

     0.0482   2.5052   5.4174   7.0975  19.9030  21.9852  28.9193  29.9915

          k = 0.6719-0.0000 0.8399 (   906 PWs)   bands (ev):

     0.9026   1.9886   4.1522   7.5601  20.3681  24.7155  27.9718  29.2031

          k =-0.1680-1.0079-0.0000 (   922 PWs)   bands (ev):

     1.0711   1.0711   6.6828   6.6828  19.6067  19.6067  30.4172  30.4172

          k = 0.6719-0.3360 1.0079 (   909 PWs)   bands (ev):

    -2.9627   5.0374   6.1972   8.7722  21.5990  23.7332  25.6798  28.2461

          k = 0.5879-0.2520 0.9239 (   909 PWs)   bands (ev):

    -1.3917   3.1925   5.7632   7.9371  22.5034  23.8251  26.3986  28.9258

          k = 0.5039-0.1680 0.8399 (   916 PWs)   bands (ev):

    -0.1887   1.7933   5.7650   7.5810  22.5577  24.0833  27.9269  28.1058

          k = 0.6719-0.1680 1.0079 (   909 PWs)   bands (ev):

    -0.8288   3.5646   5.5860   6.6748  21.6723  22.9017  26.8600  29.5981

          k = 0.5879-0.0840 0.9239 (   909 PWs)   bands (ev):

     0.6354   2.4020   4.7598   6.3785  22.4486  24.6435  26.6061  28.3154

          k = 0.5039 0.0000 0.8399 (   911 PWs)   bands (ev):

     0.1120   2.8452   4.4499   6.9450  22.8755  24.7843  26.8339  27.9424

          k =-0.3360-1.0079 0.0000 (   912 PWs)   bands (ev):

     1.5047   1.5047   5.6299   5.6299  22.0871  22.0871  28.6360  28.6360

          k =-0.5039-1.0079 0.0000 (   892 PWs)   bands (ev):

     1.7963   1.7963   5.0681   5.0681  24.3907  24.3907  26.5448  26.5448

     highest occupied, lowest unoccupied level (ev):    13.7223   18.0009

!    total energy              =     -22.89006993 Ry
     Harris-Foulkes estimate   =     -22.89006993 Ry
     estimated scf accuracy    <          1.8E-17 Ry

     The total energy is the sum of the following terms:

     one-electron contribution =       8.27814560 Ry
     hartree contribution      =       1.88484286 Ry
     xc contribution           =      -7.13593540 Ry
     ewald contribution        =     -25.91712299 Ry

     convergence has been achieved in  11 iterations

     Forces acting on atoms (cartesian axes, Ry/au):

     atom    1 type  1   force =     0.00000000    0.00000000    0.00000000
     atom    2 type  1   force =    -0.00000000    0.00000000   -0.00000000

     Total force =     0.000000     Total SCF correction =     0.000000


     Computing stress (Cartesian axis) and pressure

          total   stress  (Ry/bohr**3)                   (kbar)     P=   -2.49
  -0.00001694   0.00000000   0.00000000         -2.49      0.00      0.00
   0.00000000  -0.00001694  -0.00000000          0.00     -2.49     -0.00
   0.00000000  -0.00000000  -0.00001694          0.00     -0.00     -2.49


     number of scf cycles    =   3
     number of bfgs steps    =   1

     enthalpy old            =     -22.8894127537 Ry
     enthalpy new            =     -22.8900699295 Ry

     CASE: enthalpy_new < enthalpy_old

     new trust radius        =       0.0003156218 bohr
     new conv_thr            =            1.0E-17 Ry

     new unit-cell volume =     73.51601 a.u.^3 (    10.89395 Ang^3 )
     density =      3.66162 g/cm^3

CELL_PARAMETERS (alat=  6.70342551)
  -0.496006285  -0.000000000   0.496006285
  -0.000000000   0.496006285   0.496006285
  -0.496006285   0.496006285  -0.000000000

ATOMIC_POSITIONS (crystal)
C       -0.000000000   0.000000000  -0.000000000
C        0.250000000   0.250000000   0.250000000



     Writing output data file c.save
     NEW-OLD atomic charge density approx. for the potential
     extrapolated charge    7.99558, renormalised to    8.00000

     total cpu time spent up to now is       21.9 secs

     per-process dynamical memory:    21.8 Mb

     Self-consistent Calculation

     iteration #  1     ecut=    80.00 Ry     beta=0.70
     Davidson diagonalization with overlap
     ethr =  1.00E-06,  avg # of iterations =  1.0

     Threshold (ethr) on eigenvalues was too large:
     Diagonalizing with lowered threshold

     Davidson diagonalization with overlap
     ethr =  1.79E-09,  avg # of iterations =  2.0

     total cpu time spent up to now is       22.8 secs

     total energy              =     -22.89006929 Ry
     Harris-Foulkes estimate   =     -22.88699830 Ry
     estimated scf accuracy    <       0.00000013 Ry

     iteration #  2     ecut=    80.00 Ry     beta=0.70
     Davidson diagonalization with overlap
     ethr =  1.68E-09,  avg # of iterations =  3.3

     total cpu time spent up to now is       23.7 secs

     total energy              =     -22.89006958 Ry
     Harris-Foulkes estimate   =     -22.89006959 Ry
     estimated scf accuracy    <       0.00000004 Ry

     iteration #  3     ecut=    80.00 Ry     beta=0.70
     Davidson diagonalization with overlap
     ethr =  4.75E-10,  avg # of iterations =  1.0

     total cpu time spent up to now is       24.1 secs

     total energy              =     -22.89006957 Ry
     Harris-Foulkes estimate   =     -22.89006958 Ry
     estimated scf accuracy    <       0.00000001 Ry

     iteration #  4     ecut=    80.00 Ry     beta=0.70
     Davidson diagonalization with overlap
     ethr =  1.86E-10,  avg # of iterations =  2.0

     total cpu time spent up to now is       24.6 secs

     total energy              =     -22.89006958 Ry
     Harris-Foulkes estimate   =     -22.89006958 Ry
     estimated scf accuracy    <          1.8E-10 Ry

     iteration #  5     ecut=    80.00 Ry     beta=0.70
     Davidson diagonalization with overlap
     ethr =  2.30E-12,  avg # of iterations =  2.8

     total cpu time spent up to now is       25.4 secs

     total energy              =     -22.89006958 Ry
     Harris-Foulkes estimate   =     -22.89006958 Ry
     estimated scf accuracy    <          2.0E-11 Ry

     iteration #  6     ecut=    80.00 Ry     beta=0.70
     Davidson diagonalization with overlap
     ethr =  2.48E-13,  avg # of iterations =  2.1

     total cpu time spent up to now is       26.0 secs

     total energy              =     -22.89006958 Ry
     Harris-Foulkes estimate   =     -22.89006958 Ry
     estimated scf accuracy    <          4.9E-13 Ry

     iteration #  7     ecut=    80.00 Ry     beta=0.70
     Davidson diagonalization with overlap
     ethr =  1.00E-13,  avg # of iterations =  1.0

     total cpu time spent up to now is       26.4 secs

     total energy              =     -22.89006958 Ry
     Harris-Foulkes estimate   =     -22.89006958 Ry
     estimated scf accuracy    <          3.9E-15 Ry

     iteration #  8     ecut=    80.00 Ry     beta=0.70
     Davidson diagonalization with overlap
     ethr =  1.00E-13,  avg # of iterations =  1.0

     total cpu time spent up to now is       26.8 secs

     total energy              =     -22.89006958 Ry
     Harris-Foulkes estimate   =     -22.89006958 Ry
     estimated scf accuracy    <          3.4E-16 Ry

     iteration #  9     ecut=    80.00 Ry     beta=0.70
     Davidson diagonalization with overlap
     ethr =  1.00E-13,  avg # of iterations =  1.0

     total cpu time spent up to now is       27.2 secs

     End of self-consistent calculation

          k = 0.0000 0.0000 0.0000 (   941 PWs)   bands (ev):

    -8.0781  13.7324  13.7324  13.7324  19.4072  19.4072  19.4072  28.0547

          k =-0.0840 0.0840-0.0840 (   917 PWs)   bands (ev):

    -7.8798  12.4916  13.3986  13.3986  19.8446  19.8446  20.1693  28.1635

          k =-0.1680 0.1680-0.1680 (   917 PWs)   bands (ev):

    -7.2873   9.9300  12.6756  12.6756  20.7901  20.7901  21.3851  28.4729

          k =-0.2520 0.2520-0.2520 (   911 PWs)   bands (ev):

    -6.3084   7.0523  11.9325  11.9325  21.6634  21.6634  22.3041  28.9032

          k =-0.3360 0.3360-0.3360 (   926 PWs)   bands (ev):

    -4.9619   4.2173  11.3438  11.3438  22.1488  22.1488  22.8789  29.2885

          k =-0.4200 0.4200-0.4200 (   911 PWs)   bands (ev):

    -3.3085   1.6289  10.9759  10.9759  22.2980  22.2980  23.1886  29.4915

          k = 0.5040-0.5040 0.5040 (   912 PWs)   bands (ev):

    -1.9882  -0.0094  10.8513  10.8513  22.3162  22.3162  23.2866  29.5402

          k = 0.0000 0.1680 0.0000 (   917 PWs)   bands (ev):

    -7.8138  12.7865  12.7865  13.1476  19.2191  20.5775  20.5775  28.0897

          k =-0.0840 0.2520-0.0840 (   913 PWs)   bands (ev):

    -7.3528  10.8020  11.9576  12.7951  19.5300  21.6816  21.7407  28.0006

          k =-0.1680 0.3360-0.1680 (   913 PWs)   bands (ev):

    -6.5029   8.0772  11.2164  12.1119  20.4076  22.6480  22.7368  27.9781

          k =-0.2520 0.4200-0.2520 (   912 PWs)   bands (ev):

    -5.2783   5.2562  10.6981  11.3427  21.1981  23.1508  23.3797  28.2959

          k =-0.3360 0.5040-0.3360 (   902 PWs)   bands (ev):

    -3.7178   2.5912  10.4525  10.6807  21.6522  23.1875  23.7364  28.9587

          k = 0.5880-0.4200 0.5880 (   905 PWs)   bands (ev):

    -2.0695   0.4253  10.2153  10.4889  21.9403  22.9744  23.8749  29.4975

          k = 0.5040-0.3360 0.5040 (   909 PWs)   bands (ev):

    -2.5735   1.0350   9.9944  10.7933  22.2384  22.6747  23.8179  29.5405

          k = 0.4200-0.2520 0.4200 (   910 PWs)   bands (ev):

    -4.2707   3.4548  10.0451  11.3334  22.2738  22.5152  23.5427  29.1130

          k = 0.3360-0.1680 0.3360 (   913 PWs)   bands (ev):

    -5.7269   6.1976  10.3777  12.0499  21.6311  22.5365  22.9714  28.5897

          k = 0.2520-0.0840 0.2520 (   916 PWs)   bands (ev):

    -6.8290   9.0214  10.9815  12.8239  20.7311  21.9324  22.1549  28.3224

          k = 0.1680-0.0000 0.1680 (   911 PWs)   bands (ev):

    -7.5502  11.4797  11.9296  13.3998  19.9405  20.7958  21.1605  28.2336

          k = 0.0000 0.3360 0.0000 (   913 PWs)   bands (ev):

    -7.0246  11.0691  11.0691  11.5734  18.7704  22.9496  22.9496  26.9854

          k =-0.0840 0.4200-0.0840 (   909 PWs)   bands (ev):

    -6.3069   9.0251  10.2952  11.0722  19.0450  24.1129  24.1183  26.0123

          k =-0.1680 0.5040-0.1680 (   913 PWs)   bands (ev):

    -5.2113   6.4283   9.7698  10.2892  19.8866  24.8209  24.8829  25.7834

          k =-0.2520 0.5880-0.2520 (   904 PWs)   bands (ev):

    -3.7662   3.8177   9.4178   9.5472  20.5495  24.9471  25.3157  26.6629

          k = 0.6720-0.3360 0.6720 (   904 PWs)   bands (ev):

    -2.0908   1.4790   8.6754   9.6400  20.9661  24.6609  25.5063  28.2648

          k = 0.5880-0.2520 0.5880 (   912 PWs)   bands (ev):

    -1.6077   0.9084   8.1687  10.0326  21.4142  24.1574  25.4907  29.4601

          k = 0.5040-0.1680 0.5040 (   904 PWs)   bands (ev):

    -3.2258   3.0266   7.9553  10.6815  21.9768  23.4818  25.2431  29.0318

          k = 0.4200-0.0840 0.4200 (   908 PWs)   bands (ev):

    -4.7693   5.6030   8.0752  11.5001  22.4991  22.5680  24.5681  28.1493

          k = 0.3360 0.0000 0.3360 (   913 PWs)   bands (ev):

    -5.9844   8.0140   8.7834  12.3189  21.5015  22.6375  23.3311  27.9776

          k = 0.0000 0.5040 0.0000 (   902 PWs)   bands (ev):

    -5.7229   9.3191   9.4707   9.4707  18.2980  24.2206  25.5827  25.5827

          k =-0.0840 0.5880-0.0840 (   906 PWs)   bands (ev):

    -4.7604   7.3096   8.8932   8.9058  18.6335  23.2555  26.6295  26.6635

          k =-0.1680 0.6720-0.1680 (   902 PWs)   bands (ev):

    -3.4423   5.0461   7.8830   8.6285  19.4204  23.5963  27.0250  27.2770

          k = 0.7560-0.2520 0.7560 (   908 PWs)   bands (ev):

    -1.8406   2.8048   6.8698   8.6971  19.9338  25.3805  26.8221  27.5429

          k = 0.6720-0.1680 0.6720 (   915 PWs)   bands (ev):

    -0.6268   1.3935   6.0979   9.0890  20.4086  26.1991  27.5634  27.8525

          k = 0.5880-0.0840 0.5880 (   908 PWs)   bands (ev):

    -1.8738   2.9351   5.6668   9.7628  21.0615  25.2365  27.4114  29.0463

          k = 0.5040 0.0000 0.5040 (   907 PWs)   bands (ev):

    -3.4605   4.9970   5.9062  10.6275  21.8472  23.9502  26.4267  28.1697

          k = 0.0000 0.6720 0.0000 (   906 PWs)   bands (ev):

    -3.9330   6.6296   8.2456   8.2456  18.0125  21.6010  28.1088  28.1088

          k =-0.0840 0.7560-0.0840 (   906 PWs)   bands (ev):

    -2.7482   5.0961   7.3114   7.9079  18.4666  21.0864  28.9054  28.9970

          k = 0.8400-0.1680 0.8400 (   914 PWs)   bands (ev):

    -1.2571   3.5288   5.8194   7.9105  19.1155  22.2469  28.9107  29.3857

          k = 0.7560-0.0840 0.7560 (   915 PWs)   bands (ev):

     0.2340   2.1548   4.5123   8.2510  19.5677  24.7799  28.2231  29.4582

          k = 0.6720 0.0000 0.6720 (   901 PWs)   bands (ev):

    -0.3516   2.7462   4.0231   8.8958  20.2026  26.9481  27.6331  29.2410

          k = 0.0000 0.8400 0.0000 (   906 PWs)   bands (ev):

    -1.6990   3.7435   7.4854   7.4854  18.0695  19.7323  30.1289  30.1289

          k = 0.9240-0.0840 0.9240 (   919 PWs)   bands (ev):

    -0.3341   2.3639   6.6529   7.4027  18.6186  19.7529  30.4147  30.5740

          k = 0.8400 0.0000 0.8400 (   922 PWs)   bands (ev):

     1.0611   1.3666   5.1669   7.6662  19.0124  21.7969  29.7329  30.4026

          k = 0.0000-1.0081 0.0000 (   934 PWs)   bands (ev):

     0.9025   0.9025   7.2283   7.2283  18.5989  18.5989  30.9593  30.9593

          k =-0.1680 0.3360 0.0000 (   915 PWs)   bands (ev):

    -6.7634   9.7109  10.3034  12.3798  19.7797  22.7519  22.9066  27.4537

          k =-0.2520 0.4200-0.0840 (   911 PWs)   bands (ev):

    -5.7903   7.2810   9.4559  11.6927  20.6648  23.2839  24.0751  27.1534

          k =-0.3360 0.5040-0.1680 (   907 PWs)   bands (ev):

    -4.4539   4.5859   9.0679  10.8867  21.4896  23.3098  24.8498  27.6729

          k = 0.5880-0.4200 0.7560 (   905 PWs)   bands (ev):

    -2.8190   2.0729   8.9481  10.2232  21.8975  23.1510  25.2252  28.7881

          k = 0.5040-0.3360 0.6720 (   912 PWs)   bands (ev):

    -1.5294   0.4818   8.9598   9.9405  21.9977  23.0721  25.3340  29.4493

          k =-0.1680 0.5040 0.0000 (   905 PWs)   bands (ev):

    -5.4665   7.9807   8.7614  10.4479  19.3535  24.6620  25.1395  25.5767

          k =-0.2520 0.5880-0.0840 (   906 PWs)   bands (ev):

    -4.2586   5.7838   8.0294   9.6684  20.2818  24.4193  25.4731  26.6979

          k = 0.6720-0.3360 0.8400 (   905 PWs)   bands (ev):

    -2.7277   3.3638   7.6631   9.0054  20.9632  24.5812  26.3054  27.3361

          k = 0.5880-0.2520 0.7560 (   912 PWs)   bands (ev):

    -1.1386   1.3445   7.2594   8.8969  21.3767  24.3816  27.2735  28.2798

          k = 0.5040-0.1680 0.6720 (   912 PWs)   bands (ev):

    -1.6286   1.9419   6.9018   9.3273  21.8588  23.8812  27.1467  28.9020

          k = 0.4200-0.0840 0.5880 (   906 PWs)   bands (ev):

    -3.2756   4.2163   6.8024  10.0815  22.4395  23.0717  26.6877  27.6112

          k = 0.3360 0.0000 0.5040 (   914 PWs)   bands (ev):

    -4.7041   6.4369   7.3148  10.9649  21.7334  23.1565  25.6451  26.8294

          k =-0.1680 0.6720 0.0000 (   902 PWs)   bands (ev):

    -3.6862   6.1564   7.5810   8.3941  19.0796  22.4439  27.1250  28.1440

          k = 0.7560-0.2520 0.9240 (   910 PWs)   bands (ev):

    -2.2782   4.4219   6.5702   7.8333  20.0117  22.9386  27.1276  28.9912

          k = 0.6720-0.1680 0.8400 (   910 PWs)   bands (ev):

    -0.6718   2.5494   5.5880   7.8677  20.5391  24.9325  26.8449  29.0740

          k = 0.5880-0.0840 0.7560 (   909 PWs)   bands (ev):

    -0.2739   2.1771   4.8856   8.3499  21.0563  25.8661  27.7594  28.5166

          k = 0.5040 0.0000 0.6720 (   906 PWs)   bands (ev):

    -1.7971   3.8042   4.8759   9.1403  21.7652  24.6191  27.7456  28.5054

          k = 0.8400-0.1680 1.0081 (   919 PWs)   bands (ev):

    -1.4729   3.7649   6.8695   7.1245  19.1252  20.6846  29.1671  30.0555

          k = 0.7560-0.0840 0.9240 (   914 PWs)   bands (ev):

     0.0542   2.5123   5.4231   7.1041  19.9150  21.9980  28.9368  30.0099

          k = 0.6720-0.0000 0.8400 (   906 PWs)   bands (ev):

     0.9096   1.9952   4.1570   7.5670  20.3802  24.7296  27.9886  29.2215

          k =-0.1680-1.0081-0.0000 (   922 PWs)   bands (ev):

     1.0774   1.0774   6.6893   6.6893  19.6186  19.6186  30.4356  30.4356

          k = 0.6720-0.3360 1.0081 (   909 PWs)   bands (ev):

    -2.9581   5.0450   6.2036   8.7798  21.6120  23.7453  25.6971  28.2632

          k = 0.5880-0.2520 0.9240 (   909 PWs)   bands (ev):

    -1.3862   3.1990   5.7699   7.9441  22.5160  23.8387  26.4158  28.9437

          k = 0.5040-0.1680 0.8400 (   916 PWs)   bands (ev):

    -0.1822   1.7986   5.7720   7.5877  22.5699  24.0982  27.9447  28.1230

          k = 0.6720-0.1680 1.0081 (   909 PWs)   bands (ev):

    -0.8232   3.5722   5.5921   6.6810  21.6852  22.9142  26.8771  29.6163

          k = 0.5880-0.0840 0.9240 (   909 PWs)   bands (ev):

     0.6420   2.4088   4.7653   6.3846  22.4613  24.6568  26.6234  28.3329

          k = 0.5040 0.0000 0.8400 (   911 PWs)   bands (ev):

     0.1183   2.8523   4.4551   6.9515  22.8880  24.7984  26.8513  27.9597

          k =-0.3360-1.0081 0.0000 (   912 PWs)   bands (ev):

     1.5115   1.5115   5.6357   5.6357  22.0998  22.0998  28.6536  28.6536

          k =-0.5040-1.0081 0.0000 (   892 PWs)   bands (ev):

     1.8035   1.8035   5.0734   5.0734  24.4034  24.4034  26.5623  26.5623

     highest occupied, lowest unoccupied level (ev):    13.7324   18.0125

!    total energy              =     -22.89006958 Ry
     Harris-Foulkes estimate   =     -22.89006958 Ry
     estimated scf accuracy    <          8.9E-18 Ry

     The total energy is the sum of the following terms:

     one-electron contribution =       8.28437932 Ry
     hartree contribution      =       1.88430945 Ry
     xc contribution           =      -7.13686563 Ry
     ewald contribution        =     -25.92189271 Ry

     convergence has been achieved in   9 iterations

     Forces acting on atoms (cartesian axes, Ry/au):

     atom    1 type  1   force =     0.00000000    0.00000000   -0.00000000
     atom    2 type  1   force =    -0.00000000   -0.00000000   -0.00000000

     Total force =     0.000000     Total SCF correction =     0.000000


     Computing stress (Cartesian axis) and pressure

          total   stress  (Ry/bohr**3)                   (kbar)     P=    0.08
   0.00000054   0.00000000   0.00000000          0.08      0.00      0.00
   0.00000000   0.00000054   0.00000000          0.00      0.08      0.00
   0.00000000   0.00000000   0.00000054          0.00      0.00      0.08


     bfgs converged in   4 scf cycles and   2 bfgs steps
     (criteria: energy <  1.0E-04 Ry, force <  1.0E-03Ry/Bohr, cell <  5.0E-01kbar)

     End of BFGS Geometry Optimization

     Final enthalpy =     -22.8900695761 Ry
Begin final coordinates
     new unit-cell volume =     73.51601 a.u.^3 (    10.89395 Ang^3 )
     density =      3.66162 g/cm^3

CELL_PARAMETERS (alat=  6.70342551)
  -0.496006285  -0.000000000   0.496006285
  -0.000000000   0.496006285   0.496006285
  -0.496006285   0.496006285  -0.000000000

ATOMIC_POSITIONS (crystal)
C       -0.000000000   0.000000000  -0.000000000
C        0.250000000   0.250000000   0.250000000
End final coordinates



     A final scf calculation at the relaxed structure.
     The G-vectors are recalculated for the final unit cell
     Results may differ from those at the preceding step.
 
     Parallelization info
     --------------------
     sticks:   dense  smooth     PW     G-vecs:    dense   smooth      PW
     Min          12      12      4                  177      177      32
     Max          13      13      5                  179      179      36
     Sum         499     499    163                 7119     7119    1363
 


     bravais-lattice index     =            2
     lattice parameter (alat)  =       6.7034  a.u.
     unit-cell volume          =      73.5160 (a.u.)^3
     number of atoms/cell      =            2
     number of atomic types    =            1
     number of electrons       =         8.00
     number of Kohn-Sham states=            8
     kinetic-energy cutoff     =      80.0000  Ry
     charge density cutoff     =     320.0000  Ry
     convergence threshold     =      1.0E-17
     mixing beta               =       0.7000
     number of iterations used =            8  local-TF  mixing
     Exchange-correlation      = PZ ( 1  1  0  0 0 0)

     celldm(1)=   6.703426  celldm(2)=   0.000000  celldm(3)=   0.000000
     celldm(4)=   0.000000  celldm(5)=   0.000000  celldm(6)=   0.000000

     crystal axes: (cart. coord. in units of alat)
               a(1) = (  -0.496006  -0.000000   0.496006 )  
               a(2) = (  -0.000000   0.496006   0.496006 )  
               a(3) = (  -0.496006   0.496006  -0.000000 )  

     reciprocal axes: (cart. coord. in units 2 pi/alat)
               b(1) = ( -1.008052 -1.008052  1.008052 )  
               b(2) = (  1.008052  1.008052  1.008052 )  
               b(3) = ( -1.008052  1.008052 -1.008052 )  


     PseudoPot. # 1 for  C read from file:
     ../C.pz-mt.fhi.UPF
     MD5 check sum: b7c38bc33a0cf75f44be89b84470f298
     Pseudo is Norm-conserving, Zval =  4.0
     Generated using FHI98PP, converted with fhi2upf.x v.5.0.2
     Using radial grid of  461 points,  2 beta functions with: 
                l(1) =   0
                l(2) =   1

     atomic species   valence    mass     pseudopotential
        C              4.00    12.01100      C( 1.00)

     24 Sym. Ops. (no inversion) found
          (note: 24 additional sym.ops. were found but ignored
           their fractional translations are incommensurate with FFT grid)


   Cartesian axes

     site n.     atom                  positions (alat units)
         1           C   tau(   1) = (   0.0000000   0.0000000   0.0000000  )
         2           C   tau(   2) = (  -0.2480031   0.2480031   0.2480031  )

     number of k points=    72
                       cart. coord. in units 2pi/alat
        k(    1) = (   0.0000000   0.0000000   0.0000000), wk =   0.0011574
        k(    2) = (  -0.0840043   0.0840043  -0.0840043), wk =   0.0092593
        k(    3) = (  -0.1680086   0.1680086  -0.1680086), wk =   0.0092593
        k(    4) = (  -0.2520129   0.2520129  -0.2520129), wk =   0.0092593
        k(    5) = (  -0.3360172   0.3360172  -0.3360172), wk =   0.0092593
        k(    6) = (  -0.4200216   0.4200216  -0.4200216), wk =   0.0092593
        k(    7) = (   0.5040259  -0.5040259   0.5040259), wk =   0.0046296
        k(    8) = (   0.0000000   0.1680086   0.0000000), wk =   0.0069444
        k(    9) = (  -0.0840043   0.2520129  -0.0840043), wk =   0.0277778
        k(   10) = (  -0.1680086   0.3360172  -0.1680086), wk =   0.0277778
        k(   11) = (  -0.2520129   0.4200216  -0.2520129), wk =   0.0277778
        k(   12) = (  -0.3360172   0.5040259  -0.3360172), wk =   0.0277778
        k(   13) = (   0.5880302  -0.4200216   0.5880302), wk =   0.0277778
        k(   14) = (   0.5040259  -0.3360172   0.5040259), wk =   0.0277778
        k(   15) = (   0.4200216  -0.2520129   0.4200216), wk =   0.0277778
        k(   16) = (   0.3360172  -0.1680086   0.3360172), wk =   0.0277778
        k(   17) = (   0.2520129  -0.0840043   0.2520129), wk =   0.0277778
        k(   18) = (   0.1680086  -0.0000000   0.1680086), wk =   0.0138889
        k(   19) = (   0.0000000   0.3360172   0.0000000), wk =   0.0069444
        k(   20) = (  -0.0840043   0.4200216  -0.0840043), wk =   0.0277778
        k(   21) = (  -0.1680086   0.5040259  -0.1680086), wk =   0.0277778
        k(   22) = (  -0.2520129   0.5880302  -0.2520129), wk =   0.0277778
        k(   23) = (   0.6720345  -0.3360172   0.6720345), wk =   0.0277778
        k(   24) = (   0.5880302  -0.2520129   0.5880302), wk =   0.0277778
        k(   25) = (   0.5040259  -0.1680086   0.5040259), wk =   0.0277778
        k(   26) = (   0.4200216  -0.0840043   0.4200216), wk =   0.0277778
        k(   27) = (   0.3360172   0.0000000   0.3360172), wk =   0.0138889
        k(   28) = (   0.0000000   0.5040259   0.0000000), wk =   0.0069444
        k(   29) = (  -0.0840043   0.5880302  -0.0840043), wk =   0.0277778
        k(   30) = (  -0.1680086   0.6720345  -0.1680086), wk =   0.0277778
        k(   31) = (   0.7560388  -0.2520129   0.7560388), wk =   0.0277778
        k(   32) = (   0.6720345  -0.1680086   0.6720345), wk =   0.0277778
        k(   33) = (   0.5880302  -0.0840043   0.5880302), wk =   0.0277778
        k(   34) = (   0.5040259   0.0000000   0.5040259), wk =   0.0138889
        k(   35) = (   0.0000000   0.6720345   0.0000000), wk =   0.0069444
        k(   36) = (  -0.0840043   0.7560388  -0.0840043), wk =   0.0277778
        k(   37) = (   0.8400431  -0.1680086   0.8400431), wk =   0.0277778
        k(   38) = (   0.7560388  -0.0840043   0.7560388), wk =   0.0277778
        k(   39) = (   0.6720345   0.0000000   0.6720345), wk =   0.0138889
        k(   40) = (   0.0000000   0.8400431   0.0000000), wk =   0.0069444
        k(   41) = (   0.9240474  -0.0840043   0.9240474), wk =   0.0277778
        k(   42) = (   0.8400431   0.0000000   0.8400431), wk =   0.0138889
        k(   43) = (   0.0000000  -1.0080517   0.0000000), wk =   0.0034722
        k(   44) = (  -0.1680086   0.3360172   0.0000000), wk =   0.0277778
        k(   45) = (  -0.2520129   0.4200216  -0.0840043), wk =   0.0555556
[...]
        k(   53) = (   0.5040259  -0.1680086   0.6720345), wk =   0.0555556
        k(   54) = (   0.4200216  -0.0840043   0.5880302), wk =   0.0555556
        k(   55) = (   0.3360172   0.0000000   0.5040259), wk =   0.0277778
        k(   56) = (  -0.1680086   0.6720345   0.0000000), wk =   0.0277778
        k(   57) = (   0.7560388  -0.2520129   0.9240474), wk =   0.0555556
        k(   58) = (   0.6720345  -0.1680086   0.8400431), wk =   0.0555556
        k(   59) = (   0.5880302  -0.0840043   0.7560388), wk =   0.0555556
        k(   60) = (   0.5040259   0.0000000   0.6720345), wk =   0.0277778
        k(   61) = (   0.8400431  -0.1680086   1.0080517), wk =   0.0277778
        k(   62) = (   0.7560388  -0.0840043   0.9240474), wk =   0.0555556
        k(   63) = (   0.6720345  -0.0000000   0.8400431), wk =   0.0277778
        k(   64) = (  -0.1680086  -1.0080517  -0.0000000), wk =   0.0138889
        k(   65) = (   0.6720345  -0.3360172   1.0080517), wk =   0.0277778
        k(   66) = (   0.5880302  -0.2520129   0.9240474), wk =   0.0555556
        k(   67) = (   0.5040259  -0.1680086   0.8400431), wk =   0.0277778
        k(   68) = (   0.6720345  -0.1680086   1.0080517), wk =   0.0277778
        k(   69) = (   0.5880302  -0.0840043   0.9240474), wk =   0.0555556
        k(   70) = (   0.5040259   0.0000000   0.8400431), wk =   0.0277778
        k(   71) = (  -0.3360172  -1.0080517   0.0000000), wk =   0.0138889
        k(   72) = (  -0.5040259  -1.0080517   0.0000000), wk =   0.0069444

     Dense  grid:     7119 G-vectors     FFT dimensions: (  27,  27,  27)

     Estimated max dynamical RAM per process >       0.40MB

     Estimated total allocated dynamical RAM >      15.96MB
     Message from routine sym_rho_init:
     some processors have no G-vectors for symmetrization
     Message from routine sym_rho_init:
     some processors have no G-vectors for symmetrization

     Initial potential from superposition of free atoms

     starting charge    7.99993, renormalised to    8.00000
     Starting wfc are   18 randomized atomic wfcs

     Writing output data file c.save

     total cpu time spent up to now is       27.6 secs

     per-process dynamical memory:    23.9 Mb

     Self-consistent Calculation

     iteration #  1     ecut=    80.00 Ry     beta=0.70
     Davidson diagonalization with overlap
     ethr =  1.00E-06,  avg # of iterations =  5.7

     total cpu time spent up to now is       29.0 secs

     total energy              =     -22.89749656 Ry
     Harris-Foulkes estimate   =     -22.95074766 Ry
     estimated scf accuracy    <       0.13704274 Ry

     iteration #  2     ecut=    80.00 Ry     beta=0.70
     Davidson diagonalization with overlap
     ethr =  1.71E-03,  avg # of iterations =  1.3

     total cpu time spent up to now is       29.4 secs

     total energy              =     -22.88666896 Ry
     Harris-Foulkes estimate   =     -22.90174438 Ry
     estimated scf accuracy    <       0.02779904 Ry

     iteration #  3     ecut=    80.00 Ry     beta=0.70
     Davidson diagonalization with overlap
     ethr =  3.47E-04,  avg # of iterations =  2.1

     total cpu time spent up to now is       30.0 secs

     total energy              =     -22.88999086 Ry
     Harris-Foulkes estimate   =     -22.88994712 Ry
     estimated scf accuracy    <       0.00013050 Ry

     iteration #  4     ecut=    80.00 Ry     beta=0.70
     Davidson diagonalization with overlap
     ethr =  1.63E-06,  avg # of iterations =  2.1

     total cpu time spent up to now is       30.7 secs

     total energy              =     -22.89001772 Ry
     Harris-Foulkes estimate   =     -22.89002328 Ry
     estimated scf accuracy    <       0.00001113 Ry

     iteration #  5     ecut=    80.00 Ry     beta=0.70
     Davidson diagonalization with overlap
     ethr =  1.39E-07,  avg # of iterations =  2.1

     total cpu time spent up to now is       31.3 secs

     total energy              =     -22.89001895 Ry
     Harris-Foulkes estimate   =     -22.89001909 Ry
     estimated scf accuracy    <       0.00000034 Ry

     iteration #  6     ecut=    80.00 Ry     beta=0.70
     Davidson diagonalization with overlap
     ethr =  4.29E-09,  avg # of iterations =  2.0

     total cpu time spent up to now is       31.9 secs

     total energy              =     -22.89001897 Ry
     Harris-Foulkes estimate   =     -22.89001898 Ry
     estimated scf accuracy    <       0.00000001 Ry

     iteration #  7     ecut=    80.00 Ry     beta=0.70
     Davidson diagonalization with overlap
     ethr =  1.55E-10,  avg # of iterations =  2.7

     total cpu time spent up to now is       32.6 secs

     total energy              =     -22.89001898 Ry
     Harris-Foulkes estimate   =     -22.89001898 Ry
     estimated scf accuracy    <          3.7E-11 Ry

     iteration #  8     ecut=    80.00 Ry     beta=0.70
     Davidson diagonalization with overlap
     ethr =  4.66E-13,  avg # of iterations =  2.5

     total cpu time spent up to now is       33.4 secs

     total energy              =     -22.89001898 Ry
     Harris-Foulkes estimate   =     -22.89001898 Ry
     estimated scf accuracy    <          4.5E-12 Ry

     iteration #  9     ecut=    80.00 Ry     beta=0.70
     Davidson diagonalization with overlap
     ethr =  1.00E-13,  avg # of iterations =  1.6

     total cpu time spent up to now is       33.8 secs

     total energy              =     -22.89001898 Ry
     Harris-Foulkes estimate   =     -22.89001898 Ry
     estimated scf accuracy    <          2.8E-13 Ry

     iteration # 10     ecut=    80.00 Ry     beta=0.70
     Davidson diagonalization with overlap
     ethr =  1.00E-13,  avg # of iterations =  1.0

     total cpu time spent up to now is       34.2 secs

     total energy              =     -22.89001898 Ry
     Harris-Foulkes estimate   =     -22.89001898 Ry
     estimated scf accuracy    <          8.1E-15 Ry

     iteration # 11     ecut=    80.00 Ry     beta=0.70
     Davidson diagonalization with overlap
     ethr =  1.00E-13,  avg # of iterations =  1.0

     total cpu time spent up to now is       34.6 secs

     total energy              =     -22.89001898 Ry
     Harris-Foulkes estimate   =     -22.89001898 Ry
     estimated scf accuracy    <          3.9E-16 Ry

     iteration # 12     ecut=    80.00 Ry     beta=0.70
     Davidson diagonalization with overlap
     ethr =  1.00E-13,  avg # of iterations =  1.0

     total cpu time spent up to now is       35.0 secs

     End of self-consistent calculation

          k = 0.0000 0.0000 0.0000 (   893 PWs)   bands (ev):

    -8.0781  13.7328  13.7328  13.7328  19.4076  19.4076  19.4076  28.0547

          k =-0.0840 0.0840-0.0840 (   902 PWs)   bands (ev):

    -7.8798  12.4916  13.3987  13.3987  19.8447  19.8447  20.1694  28.1635

          k =-0.1680 0.1680-0.1680 (   911 PWs)   bands (ev):

    -7.2873   9.9301  12.6756  12.6756  20.7902  20.7902  21.3851  28.4728

          k =-0.2520 0.2520-0.2520 (   896 PWs)   bands (ev):

    -6.3085   7.0523  11.9325  11.9325  21.6635  21.6635  22.3043  28.9033

          k =-0.3360 0.3360-0.3360 (   896 PWs)   bands (ev):

    -4.9619   4.2174  11.3440  11.3440  22.1490  22.1490  22.8790  29.2889

          k =-0.4200 0.4200-0.4200 (   887 PWs)   bands (ev):

    -3.3085   1.6290  10.9760  10.9760  22.2983  22.2983  23.1886  29.4916

          k = 0.5040-0.5040 0.5040 (   886 PWs)   bands (ev):

    -1.9882  -0.0094  10.8516  10.8516  22.3162  22.3162  23.2866  29.5407

          k = 0.0000 0.1680 0.0000 (   893 PWs)   bands (ev):

    -7.8138  12.7867  12.7867  13.1476  19.2192  20.5779  20.5779  28.0896

          k =-0.0840 0.2520-0.0840 (   902 PWs)   bands (ev):

    -7.3529  10.8020  11.9577  12.7951  19.5301  21.6818  21.7407  28.0006

          k =-0.1680 0.3360-0.1680 (   894 PWs)   bands (ev):

    -6.5029   8.0773  11.2165  12.1119  20.4077  22.6482  22.7371  27.9781

          k =-0.2520 0.4200-0.2520 (   890 PWs)   bands (ev):

    -5.2783   5.2563  10.6982  11.3428  21.1983  23.1510  23.3797  28.2960

          k =-0.3360 0.5040-0.3360 (   891 PWs)   bands (ev):

    -3.7178   2.5912  10.4525  10.6807  21.6522  23.1876  23.7364  28.9588

          k = 0.5880-0.4200 0.5880 (   888 PWs)   bands (ev):

    -2.0695   0.4254  10.2153  10.4889  21.9405  22.9745  23.8750  29.4976

          k = 0.5040-0.3360 0.5040 (   880 PWs)   bands (ev):

    -2.5735   1.0351   9.9945  10.7935  22.2387  22.6750  23.8179  29.5407

          k = 0.4200-0.2520 0.4200 (   889 PWs)   bands (ev):

    -4.2707   3.4548  10.0453  11.3335  22.2739  22.5153  23.5428  29.1131

          k = 0.3360-0.1680 0.3360 (   897 PWs)   bands (ev):

    -5.7269   6.1977  10.3779  12.0499  21.6311  22.5366  22.9716  28.5899

          k = 0.2520-0.0840 0.2520 (   899 PWs)   bands (ev):

    -6.8290   9.0216  10.9816  12.8239  20.7312  21.9326  22.1551  28.3225

          k = 0.1680-0.0000 0.1680 (   903 PWs)   bands (ev):

    -7.5502  11.4797  11.9297  13.3998  19.9405  20.7958  21.1606  28.2335

          k = 0.0000 0.3360 0.0000 (   897 PWs)   bands (ev):

    -7.0246  11.0692  11.0692  11.5734  18.7705  22.9499  22.9499  26.9853

          k =-0.0840 0.4200-0.0840 (   887 PWs)   bands (ev):

    -6.3069   9.0252  10.2953  11.0724  19.0451  24.1131  24.1184  26.0123

          k =-0.1680 0.5040-0.1680 (   875 PWs)   bands (ev):

    -5.2113   6.4284   9.7700  10.2894  19.8868  24.8213  24.8832  25.7836

          k =-0.2520 0.5880-0.2520 (   885 PWs)   bands (ev):

    -3.7662   3.8177   9.4179   9.5474  20.5496  24.9472  25.3158  26.6629

          k = 0.6720-0.3360 0.6720 (   886 PWs)   bands (ev):

    -2.0908   1.4791   8.6754   9.6401  20.9662  24.6611  25.5064  28.2649

          k = 0.5880-0.2520 0.5880 (   888 PWs)   bands (ev):

    -1.6077   0.9085   8.1688  10.0328  21.4143  24.1577  25.4907  29.4604

          k = 0.5040-0.1680 0.5040 (   889 PWs)   bands (ev):

    -3.2258   3.0267   7.9553  10.6816  21.9769  23.4819  25.2432  29.0320

          k = 0.4200-0.0840 0.4200 (   888 PWs)   bands (ev):

    -4.7693   5.6030   8.0753  11.5002  22.4992  22.5681  24.5683  28.1494

          k = 0.3360 0.0000 0.3360 (   891 PWs)   bands (ev):

    -5.9844   8.0141   8.7835  12.3189  21.5015  22.6378  23.3313  27.9777

          k = 0.0000 0.5040 0.0000 (   881 PWs)   bands (ev):

    -5.7229   9.3192   9.4707   9.4707  18.2981  24.2206  25.5831  25.5831

          k =-0.0840 0.5880-0.0840 (   880 PWs)   bands (ev):

    -4.7604   7.3097   8.8933   8.9058  18.6336  23.2555  26.6297  26.6638

          k =-0.1680 0.6720-0.1680 (   883 PWs)   bands (ev):

    -3.4423   5.0461   7.8830   8.6287  19.4205  23.5964  27.0252  27.2772

          k = 0.7560-0.2520 0.7560 (   888 PWs)   bands (ev):

    -1.8406   2.8048   6.8698   8.6973  19.9339  25.3805  26.8222  27.5431

          k = 0.6720-0.1680 0.6720 (   892 PWs)   bands (ev):

    -0.6268   1.3936   6.0980   9.0892  20.4087  26.1995  27.5636  27.8527

          k = 0.5880-0.0840 0.5880 (   887 PWs)   bands (ev):

    -1.8738   2.9352   5.6669   9.7629  21.0616  25.2366  27.4116  29.0465

          k = 0.5040 0.0000 0.5040 (   889 PWs)   bands (ev):

    -3.4605   4.9970   5.9063  10.6277  21.8473  23.9503  26.4269  28.1698

          k = 0.0000 0.6720 0.0000 (   866 PWs)   bands (ev):

    -3.9330   6.6298   8.2458   8.2458  18.0125  21.6010  28.1095  28.1095

          k =-0.0840 0.7560-0.0840 (   889 PWs)   bands (ev):

    -2.7482   5.0961   7.3115   7.9079  18.4667  21.0864  28.9056  28.9973

          k = 0.8400-0.1680 0.8400 (   895 PWs)   bands (ev):

    -1.2571   3.5288   5.8195   7.9105  19.1156  22.2470  28.9111  29.3859

          k = 0.7560-0.0840 0.7560 (   886 PWs)   bands (ev):

     0.2340   2.1548   4.5124   8.2512  19.5678  24.7800  28.2236  29.4584

          k = 0.6720 0.0000 0.6720 (   893 PWs)   bands (ev):

    -0.3517   2.7462   4.0231   8.8959  20.2026  26.9481  27.6331  29.2410

          k = 0.0000 0.8400 0.0000 (   886 PWs)   bands (ev):

    -1.6990   3.7435   7.4855   7.4855  18.0695  19.7323  30.1293  30.1293

          k = 0.9240-0.0840 0.9240 (   894 PWs)   bands (ev):

    -0.3341   2.3639   6.6530   7.4028  18.6186  19.7529  30.4154  30.5742

          k = 0.8400 0.0000 0.8400 (   892 PWs)   bands (ev):

     1.0612   1.3667   5.1671   7.6663  19.0125  21.7970  29.7336  30.4029

          k = 0.0000-1.0081 0.0000 (   894 PWs)   bands (ev):

     0.9025   0.9025   7.2284   7.2284  18.5989  18.5989  30.9603  30.9603

          k =-0.1680 0.3360 0.0000 (   901 PWs)   bands (ev):

    -6.7634   9.7110  10.3035  12.3799  19.7798  22.7520  22.9067  27.4537

          k =-0.2520 0.4200-0.0840 (   888 PWs)   bands (ev):

    -5.7903   7.2811   9.4560  11.6927  20.6650  23.2841  24.0754  27.1535

          k =-0.3360 0.5040-0.1680 (   886 PWs)   bands (ev):

    -4.4539   4.5860   9.0680  10.8868  21.4897  23.3099  24.8500  27.6729

          k = 0.5880-0.4200 0.7560 (   890 PWs)   bands (ev):

    -2.8190   2.0729   8.9482  10.2233  21.8975  23.1511  25.2252  28.7882

          k = 0.5040-0.3360 0.6720 (   890 PWs)   bands (ev):

    -1.5294   0.4819   8.9599   9.9406  21.9977  23.0722  25.3340  29.4495

          k =-0.1680 0.5040 0.0000 (   884 PWs)   bands (ev):

    -5.4665   7.9808   8.7614  10.4480  19.3536  24.6622  25.1396  25.5769

          k =-0.2520 0.5880-0.0840 (   888 PWs)   bands (ev):

    -4.2586   5.7839   8.0294   9.6685  20.2819  24.4194  25.4732  26.6981

          k = 0.6720-0.3360 0.8400 (   886 PWs)   bands (ev):

    -2.7276   3.3638   7.6631   9.0054  20.9633  24.5814  26.3055  27.3363

          k = 0.5880-0.2520 0.7560 (   884 PWs)   bands (ev):

    -1.1386   1.3446   7.2595   8.8969  21.3769  24.3818  27.2737  28.2801

          k = 0.5040-0.1680 0.6720 (   883 PWs)   bands (ev):

    -1.6286   1.9420   6.9019   9.3274  21.8590  23.8813  27.1469  28.9023

          k = 0.4200-0.0840 0.5880 (   886 PWs)   bands (ev):

    -3.2756   4.2164   6.8025  10.0816  22.4396  23.0719  26.6879  27.6113

          k = 0.3360 0.0000 0.5040 (   883 PWs)   bands (ev):

    -4.7041   6.4370   7.3149  10.9651  21.7335  23.1568  25.6456  26.8294

          k =-0.1680 0.6720 0.0000 (   879 PWs)   bands (ev):

    -3.6862   6.1565   7.5811   8.3942  19.0797  22.4440  27.1252  28.1443

          k = 0.7560-0.2520 0.9240 (   885 PWs)   bands (ev):

    -2.2782   4.4219   6.5703   7.8334  20.0118  22.9386  27.1279  28.9916

          k = 0.6720-0.1680 0.8400 (   887 PWs)   bands (ev):

    -0.6717   2.5495   5.5881   7.8678  20.5391  24.9326  26.8452  29.0742

          k = 0.5880-0.0840 0.7560 (   890 PWs)   bands (ev):

    -0.2739   2.1771   4.8856   8.3500  21.0563  25.8663  27.7595  28.5167

          k = 0.5040 0.0000 0.6720 (   885 PWs)   bands (ev):

    -1.7971   3.8043   4.8760   9.1405  21.7653  24.6193  27.7458  28.5055

          k = 0.8400-0.1680 1.0081 (   888 PWs)   bands (ev):

    -1.4729   3.7649   6.8696   7.1246  19.1253  20.6847  29.1676  30.0562

          k = 0.7560-0.0840 0.9240 (   890 PWs)   bands (ev):

     0.0542   2.5123   5.4232   7.1042  19.9151  21.9981  28.9372  30.0102

          k = 0.6720-0.0000 0.8400 (   894 PWs)   bands (ev):

     0.9095   1.9952   4.1570   7.5670  20.3802  24.7297  27.9887  29.2217

          k =-0.1680-1.0081-0.0000 (   888 PWs)   bands (ev):

     1.0775   1.0775   6.6894   6.6894  19.6187  19.6187  30.4360  30.4360

          k = 0.6720-0.3360 1.0081 (   890 PWs)   bands (ev):

    -2.9581   5.0451   6.2037   8.7798  21.6121  23.7454  25.6971  28.2635

          k = 0.5880-0.2520 0.9240 (   892 PWs)   bands (ev):

    -1.3862   3.1990   5.7699   7.9442  22.5161  23.8388  26.4158  28.9438

          k = 0.5040-0.1680 0.8400 (   884 PWs)   bands (ev):

    -0.1822   1.7987   5.7721   7.5878  22.5701  24.0983  27.9450  28.1233

          k = 0.6720-0.1680 1.0081 (   891 PWs)   bands (ev):

    -0.8232   3.5723   5.5921   6.6810  21.6852  22.9143  26.8771  29.6165

          k = 0.5880-0.0840 0.9240 (   890 PWs)   bands (ev):

     0.6420   2.4089   4.7654   6.3846  22.4613  24.6569  26.6236  28.3331

          k = 0.5040 0.0000 0.8400 (   890 PWs)   bands (ev):

     0.1183   2.8523   4.4552   6.9516  22.8881  24.7986  26.8514  27.9598

          k =-0.3360-1.0081 0.0000 (   896 PWs)   bands (ev):

     1.5115   1.5115   5.6357   5.6357  22.0999  22.0999  28.6536  28.6536

          k =-0.5040-1.0081 0.0000 (   892 PWs)   bands (ev):

     1.8034   1.8034   5.0734   5.0734  24.4034  24.4034  26.5623  26.5623

     highest occupied, lowest unoccupied level (ev):    13.7328   18.0125

!    total energy              =     -22.89001898 Ry
     Harris-Foulkes estimate   =     -22.89001898 Ry
     estimated scf accuracy    <          7.4E-18 Ry

     The total energy is the sum of the following terms:

     one-electron contribution =       8.28443492 Ry
     hartree contribution      =       1.88428960 Ry
     xc contribution           =      -7.13685078 Ry
     ewald contribution        =     -25.92189271 Ry

     convergence has been achieved in  12 iterations

     Forces acting on atoms (cartesian axes, Ry/au):

     atom    1 type  1   force =    -0.00000000   -0.00000000    0.00000000
     atom    2 type  1   force =     0.00000000    0.00000000   -0.00000000

     Total force =     0.000000     Total SCF correction =     0.000000


     Computing stress (Cartesian axis) and pressure

          total   stress  (Ry/bohr**3)                   (kbar)     P=    0.04
   0.00000026  -0.00000000   0.00000000          0.04     -0.00      0.00
  -0.00000000   0.00000026  -0.00000000         -0.00      0.04     -0.00
   0.00000000  -0.00000000   0.00000026          0.00     -0.00      0.04


     Writing output data file c.save
 
     init_run     :      0.66s CPU      1.09s WALL (       2 calls)
     electrons    :     32.32s CPU     33.03s WALL (       5 calls)
     update_pot   :      0.01s CPU      0.02s WALL (       3 calls)
     forces       :      0.05s CPU      0.06s WALL (       5 calls)
     stress       :      0.07s CPU      0.09s WALL (       5 calls)

     Called by init_run:
     wfcinit      :      0.60s CPU      0.83s WALL (       2 calls)
     potinit      :      0.01s CPU      0.07s WALL (       2 calls)

     Called by electrons:
     c_bands      :     31.33s CPU     31.87s WALL (      55 calls)
     sum_band     :      0.89s CPU      0.95s WALL (      55 calls)
     v_of_rho     :      0.01s CPU      0.05s WALL (      59 calls)
     mix_rho      :      0.06s CPU      0.08s WALL (      55 calls)

     Called by c_bands:
     init_us_2    :      0.06s CPU      0.10s WALL (    8784 calls)
     cegterg      :     31.08s CPU     31.60s WALL (    3960 calls)

     Called by sum_band:

     Called by *egterg:
     h_psi        :      5.74s CPU      5.91s WALL (   12025 calls)
     g_psi        :      0.01s CPU      0.01s WALL (    7921 calls)
     cdiaghg      :     16.82s CPU     17.13s WALL (   11593 calls)

     Called by h_psi:
     h_psi:pot    :      5.72s CPU      5.88s WALL (   12025 calls)
     h_psi:calbec :      0.24s CPU      0.26s WALL (   12025 calls)
     vloc_psi     :      5.37s CPU      5.51s WALL (   12025 calls)
     add_vuspsi   :      0.07s CPU      0.07s WALL (   12025 calls)

     General routines
     calbec       :      0.26s CPU      0.27s WALL (   13825 calls)
     fft          :      0.03s CPU      0.06s WALL (     261 calls)
     ffts         :      0.02s CPU      0.03s WALL (     591 calls)
     fftw         :      5.87s CPU      6.04s WALL (  199248 calls)
 
     Parallel routines
     fft_scatter  :      4.46s CPU      4.60s WALL (  200100 calls)
 
     PWSCF        :    33.64s CPU        35.63s WALL

 
   This run was terminated on:  15:36:29   4Jan2021            

=------------------------------------------------------------------------------=
   JOB DONE.
=------------------------------------------------------------------------------=
