
     Program PWSCF v.6.1 (svn rev. 13369) starts on  4Jan2021 at 16:55:42 

     This program is part of the open-source Quantum ESPRESSO suite
     for quantum simulation of materials; please cite
         "P. Giannozzi et al., J. Phys.:Condens. Matter 21 395502 (2009);
          URL http://www.quantum-espresso.org", 
     in publications or presentations arising from this work. More details at
     http://www.quantum-espresso.org/quote

     Parallel version (MPI & OpenMP), running on      40 processor cores
     Number of MPI processes:                40
     Threads/MPI process:                     1
     R & G space division:  proc/nbgrp/npool/nimage =      40
     Waiting for input...
     Reading input from standard input

     Current dimensions of program PWSCF are:
     Max number of different atomic species (ntypx) = 10
     Max number of k-points (npk) =  40000
     Max angular momentum in pseudopotentials (lmaxx) =  3

     IMPORTANT: XC functional enforced from input :
     Exchange-correlation      = PZ ( 1  1  0  0 0 0)
     Any further DFT definition will be discarded
     Please, verify this is what you really want

               file C.pz-mt.fhi.UPF: wavefunction(s)  3d renormalized

     Subspace diagonalization in iterative solution of the eigenvalue problem:
     one sub-group per band group will be used
     scalapack distributed-memory algorithm (size of sub-group:  4*  4 procs)

 
     Parallelization info
     --------------------
     sticks:   dense  smooth     PW     G-vecs:    dense   smooth      PW
     Min          12      12      4                  177      177      32
     Max          13      13      5                  179      179      36
     Sum         499     499    163                 7119     7119    1363
 


     bravais-lattice index     =            2
     lattice parameter (alat)  =       6.6499  a.u.
     unit-cell volume          =      73.5160 (a.u.)^3
     number of atoms/cell      =            2
     number of atomic types    =            1
     number of electrons       =         8.00
     number of Kohn-Sham states=            8
     kinetic-energy cutoff     =      80.0000  Ry
     charge density cutoff     =     320.0000  Ry
     convergence threshold     =      1.0E-15
     mixing beta               =       0.7000
     number of iterations used =            8  plain     mixing
     Exchange-correlation      = PZ ( 1  1  0  0 0 0)

     celldm(1)=   6.649882  celldm(2)=   0.000000  celldm(3)=   0.000000
     celldm(4)=   0.000000  celldm(5)=   0.000000  celldm(6)=   0.000000

     crystal axes: (cart. coord. in units of alat)
               a(1) = (  -0.500000   0.000000   0.500000 )  
               a(2) = (   0.000000   0.500000   0.500000 )  
               a(3) = (  -0.500000   0.500000   0.000000 )  

     reciprocal axes: (cart. coord. in units 2 pi/alat)
               b(1) = ( -1.000000 -1.000000  1.000000 )  
               b(2) = (  1.000000  1.000000  1.000000 )  
               b(3) = ( -1.000000  1.000000 -1.000000 )  


     PseudoPot. # 1 for  C read from file:
     ../C.pz-mt.fhi.UPF
     MD5 check sum: b7c38bc33a0cf75f44be89b84470f298
     Pseudo is Norm-conserving, Zval =  4.0
     Generated using FHI98PP, converted with fhi2upf.x v.5.0.2
     Using radial grid of  461 points,  2 beta functions with: 
                l(1) =   0
                l(2) =   1

     atomic species   valence    mass     pseudopotential
        C              4.00    12.01100      C( 1.00)

     24 Sym. Ops. (no inversion) found
          (note: 24 additional sym.ops. were found but ignored
           their fractional translations are incommensurate with FFT grid)


   Cartesian axes

     site n.     atom                  positions (alat units)
         1           C   tau(   1) = (   0.0000000   0.0000000   0.0000000  )
         2           C   tau(   2) = (  -0.2500000   0.2500000   0.2500000  )

     number of k points=    72
                       cart. coord. in units 2pi/alat
        k(    1) = (   0.0000000   0.0000000   0.0000000), wk =   0.0011574
        k(    2) = (  -0.0833333   0.0833333  -0.0833333), wk =   0.0092593
        k(    3) = (  -0.1666667   0.1666667  -0.1666667), wk =   0.0092593
        k(    4) = (  -0.2500000   0.2500000  -0.2500000), wk =   0.0092593
        k(    5) = (  -0.3333333   0.3333333  -0.3333333), wk =   0.0092593
        k(    6) = (  -0.4166667   0.4166667  -0.4166667), wk =   0.0092593
        k(    7) = (   0.5000000  -0.5000000   0.5000000), wk =   0.0046296
        k(    8) = (   0.0000000   0.1666667   0.0000000), wk =   0.0069444
        k(    9) = (  -0.0833333   0.2500000  -0.0833333), wk =   0.0277778
        k(   10) = (  -0.1666667   0.3333333  -0.1666667), wk =   0.0277778
        k(   11) = (  -0.2500000   0.4166667  -0.2500000), wk =   0.0277778
        k(   12) = (  -0.3333333   0.5000000  -0.3333333), wk =   0.0277778
        k(   13) = (   0.5833333  -0.4166667   0.5833333), wk =   0.0277778
        k(   14) = (   0.5000000  -0.3333333   0.5000000), wk =   0.0277778
        k(   15) = (   0.4166667  -0.2500000   0.4166667), wk =   0.0277778
        k(   16) = (   0.3333333  -0.1666667   0.3333333), wk =   0.0277778
        k(   17) = (   0.2500000  -0.0833333   0.2500000), wk =   0.0277778
        k(   18) = (   0.1666667  -0.0000000   0.1666667), wk =   0.0138889
        k(   19) = (   0.0000000   0.3333333   0.0000000), wk =   0.0069444
        k(   20) = (  -0.0833333   0.4166667  -0.0833333), wk =   0.0277778
        k(   21) = (  -0.1666667   0.5000000  -0.1666667), wk =   0.0277778
        k(   22) = (  -0.2500000   0.5833333  -0.2500000), wk =   0.0277778
        k(   23) = (   0.6666667  -0.3333333   0.6666667), wk =   0.0277778
        k(   24) = (   0.5833333  -0.2500000   0.5833333), wk =   0.0277778
        k(   25) = (   0.5000000  -0.1666667   0.5000000), wk =   0.0277778
        k(   26) = (   0.4166667  -0.0833333   0.4166667), wk =   0.0277778
        k(   27) = (   0.3333333   0.0000000   0.3333333), wk =   0.0138889
        k(   28) = (   0.0000000   0.5000000   0.0000000), wk =   0.0069444
        k(   29) = (  -0.0833333   0.5833333  -0.0833333), wk =   0.0277778
        k(   30) = (  -0.1666667   0.6666667  -0.1666667), wk =   0.0277778
        k(   31) = (   0.7500000  -0.2500000   0.7500000), wk =   0.0277778
        k(   32) = (   0.6666667  -0.1666667   0.6666667), wk =   0.0277778
        k(   33) = (   0.5833333  -0.0833333   0.5833333), wk =   0.0277778
        k(   34) = (   0.5000000   0.0000000   0.5000000), wk =   0.0138889
        k(   35) = (   0.0000000   0.6666667   0.0000000), wk =   0.0069444
        k(   36) = (  -0.0833333   0.7500000  -0.0833333), wk =   0.0277778
        k(   37) = (   0.8333333  -0.1666667   0.8333333), wk =   0.0277778
        k(   38) = (   0.7500000  -0.0833333   0.7500000), wk =   0.0277778
        k(   39) = (   0.6666667  -0.0000000   0.6666667), wk =   0.0138889
        k(   40) = (   0.0000000   0.8333333   0.0000000), wk =   0.0069444
        k(   41) = (   0.9166667  -0.0833333   0.9166667), wk =   0.0277778
        k(   42) = (   0.8333333   0.0000000   0.8333333), wk =   0.0138889
        k(   43) = (   0.0000000  -1.0000000   0.0000000), wk =   0.0034722
        k(   44) = (  -0.1666667   0.3333333   0.0000000), wk =   0.0277778
        k(   45) = (  -0.2500000   0.4166667  -0.0833333), wk =   0.0555556
        k(   46) = (  -0.3333333   0.5000000  -0.1666667), wk =   0.0555556
        k(   47) = (   0.5833333  -0.4166667   0.7500000), wk =   0.0555556
        k(   48) = (   0.5000000  -0.3333333   0.6666667), wk =   0.0277778
        k(   49) = (  -0.1666667   0.5000000   0.0000000), wk =   0.0277778
        k(   50) = (  -0.2500000   0.5833333  -0.0833333), wk =   0.0555556
        k(   51) = (   0.6666667  -0.3333333   0.8333333), wk =   0.0555556
        k(   52) = (   0.5833333  -0.2500000   0.7500000), wk =   0.0555556
        k(   53) = (   0.5000000  -0.1666667   0.6666667), wk =   0.0555556
        k(   54) = (   0.4166667  -0.0833333   0.5833333), wk =   0.0555556
        k(   55) = (   0.3333333   0.0000000   0.5000000), wk =   0.0277778
        k(   56) = (  -0.1666667   0.6666667  -0.0000000), wk =   0.0277778
        k(   57) = (   0.7500000  -0.2500000   0.9166667), wk =   0.0555556
        k(   58) = (   0.6666667  -0.1666667   0.8333333), wk =   0.0555556
        k(   59) = (   0.5833333  -0.0833333   0.7500000), wk =   0.0555556
        k(   60) = (   0.5000000   0.0000000   0.6666667), wk =   0.0277778
        k(   61) = (   0.8333333  -0.1666667   1.0000000), wk =   0.0277778
        k(   62) = (   0.7500000  -0.0833333   0.9166667), wk =   0.0555556
        k(   63) = (   0.6666667   0.0000000   0.8333333), wk =   0.0277778
        k(   64) = (  -0.1666667  -1.0000000  -0.0000000), wk =   0.0138889
        k(   65) = (   0.6666667  -0.3333333   1.0000000), wk =   0.0277778
        k(   66) = (   0.5833333  -0.2500000   0.9166667), wk =   0.0555556
        k(   67) = (   0.5000000  -0.1666667   0.8333333), wk =   0.0277778
        k(   68) = (   0.6666667  -0.1666667   1.0000000), wk =   0.0277778
        k(   69) = (   0.5833333  -0.0833333   0.9166667), wk =   0.0555556
        k(   70) = (   0.5000000   0.0000000   0.8333333), wk =   0.0277778
        k(   71) = (  -0.3333333  -1.0000000   0.0000000), wk =   0.0138889
        k(   72) = (  -0.5000000  -1.0000000   0.0000000), wk =   0.0069444

     Dense  grid:     7119 G-vectors     FFT dimensions: (  27,  27,  27)

     Estimated max dynamical RAM per process >       0.33MB

     Estimated total allocated dynamical RAM >      13.35MB
     Message from routine sym_rho_init:
     some processors have no G-vectors for symmetrization
     Message from routine sym_rho_init:
     some processors have no G-vectors for symmetrization

     Initial potential from superposition of free atoms

     starting charge    7.99993, renormalised to    8.00000
     Starting wfc are   18 randomized atomic wfcs

     total cpu time spent up to now is        0.5 secs

     per-process dynamical memory:    18.2 Mb

     Self-consistent Calculation

     iteration #  1     ecut=    80.00 Ry     beta=0.70
     Davidson diagonalization with overlap
     ethr =  1.00E-02,  avg # of iterations =  2.9

     total cpu time spent up to now is        1.3 secs

     total energy              =     -22.87801248 Ry
     Harris-Foulkes estimate   =     -22.95041194 Ry
     estimated scf accuracy    <       0.13694791 Ry

     iteration #  2     ecut=    80.00 Ry     beta=0.70
     Davidson diagonalization with overlap
     ethr =  1.71E-03,  avg # of iterations =  2.0

     total cpu time spent up to now is        2.0 secs

     total energy              =     -22.88976011 Ry
     Harris-Foulkes estimate   =     -22.89031095 Ry
     estimated scf accuracy    <       0.00190276 Ry

     iteration #  3     ecut=    80.00 Ry     beta=0.70
     Davidson diagonalization with overlap
     ethr =  2.38E-05,  avg # of iterations =  2.2

     total cpu time spent up to now is        2.8 secs

     total energy              =     -22.89001661 Ry
     Harris-Foulkes estimate   =     -22.89003344 Ry
     estimated scf accuracy    <       0.00008414 Ry

     iteration #  4     ecut=    80.00 Ry     beta=0.70
     Davidson diagonalization with overlap
     ethr =  1.05E-06,  avg # of iterations =  1.9

     total cpu time spent up to now is        3.5 secs

     total energy              =     -22.89001882 Ry
     Harris-Foulkes estimate   =     -22.89001952 Ry
     estimated scf accuracy    <       0.00000174 Ry

     iteration #  5     ecut=    80.00 Ry     beta=0.70
     Davidson diagonalization with overlap
     ethr =  2.17E-08,  avg # of iterations =  2.6

     total cpu time spent up to now is        4.3 secs

     total energy              =     -22.89001897 Ry
     Harris-Foulkes estimate   =     -22.89001897 Ry
     estimated scf accuracy    <          1.2E-09 Ry

     iteration #  6     ecut=    80.00 Ry     beta=0.70
     Davidson diagonalization with overlap
     ethr =  1.48E-11,  avg # of iterations =  3.4

     total cpu time spent up to now is        5.4 secs

     total energy              =     -22.89001898 Ry
     Harris-Foulkes estimate   =     -22.89001898 Ry
     estimated scf accuracy    <          4.1E-10 Ry

     iteration #  7     ecut=    80.00 Ry     beta=0.70
     Davidson diagonalization with overlap
     ethr =  5.08E-12,  avg # of iterations =  1.5

     total cpu time spent up to now is        5.9 secs

     total energy              =     -22.89001898 Ry
     Harris-Foulkes estimate   =     -22.89001898 Ry
     estimated scf accuracy    <          2.9E-11 Ry

     iteration #  8     ecut=    80.00 Ry     beta=0.70
     Davidson diagonalization with overlap
     ethr =  3.63E-13,  avg # of iterations =  2.5

     total cpu time spent up to now is        6.7 secs

     total energy              =     -22.89001898 Ry
     Harris-Foulkes estimate   =     -22.89001898 Ry
     estimated scf accuracy    <          1.1E-13 Ry

     iteration #  9     ecut=    80.00 Ry     beta=0.70
     Davidson diagonalization with overlap
     ethr =  1.00E-13,  avg # of iterations =  1.0

     total cpu time spent up to now is        7.2 secs

     total energy              =     -22.89001898 Ry
     Harris-Foulkes estimate   =     -22.89001898 Ry
     estimated scf accuracy    <          3.3E-15 Ry

     iteration # 10     ecut=    80.00 Ry     beta=0.70
     Davidson diagonalization with overlap
     ethr =  1.00E-13,  avg # of iterations =  1.0

     total cpu time spent up to now is        7.7 secs

     End of self-consistent calculation

          k = 0.0000 0.0000 0.0000 (   893 PWs)   bands (ev):

    -8.0781  13.7328  13.7328  13.7328  19.4076  19.4076  19.4076  28.0547

          k =-0.0833 0.0833-0.0833 (   902 PWs)   bands (ev):

    -7.8798  12.4916  13.3987  13.3987  19.8447  19.8447  20.1694  28.1635

          k =-0.1667 0.1667-0.1667 (   911 PWs)   bands (ev):

    -7.2873   9.9301  12.6756  12.6756  20.7902  20.7902  21.3851  28.4728

          k =-0.2500 0.2500-0.2500 (   896 PWs)   bands (ev):

    -6.3085   7.0523  11.9325  11.9325  21.6635  21.6635  22.3043  28.9033

          k =-0.3333 0.3333-0.3333 (   896 PWs)   bands (ev):

    -4.9619   4.2174  11.3440  11.3440  22.1490  22.1490  22.8790  29.2889

          k =-0.4167 0.4167-0.4167 (   887 PWs)   bands (ev):

    -3.3085   1.6290  10.9760  10.9760  22.2983  22.2983  23.1886  29.4916

          k = 0.5000-0.5000 0.5000 (   886 PWs)   bands (ev):

    -1.9882  -0.0094  10.8516  10.8516  22.3162  22.3162  23.2866  29.5407

          k = 0.0000 0.1667 0.0000 (   893 PWs)   bands (ev):

    -7.8138  12.7867  12.7867  13.1476  19.2192  20.5779  20.5779  28.0896

          k =-0.0833 0.2500-0.0833 (   902 PWs)   bands (ev):

    -7.3529  10.8020  11.9577  12.7951  19.5301  21.6818  21.7407  28.0006

          k =-0.1667 0.3333-0.1667 (   894 PWs)   bands (ev):

    -6.5029   8.0773  11.2165  12.1119  20.4077  22.6482  22.7371  27.9781

          k =-0.2500 0.4167-0.2500 (   890 PWs)   bands (ev):

    -5.2783   5.2563  10.6982  11.3428  21.1983  23.1510  23.3797  28.2960

          k =-0.3333 0.5000-0.3333 (   891 PWs)   bands (ev):

    -3.7178   2.5912  10.4525  10.6807  21.6522  23.1876  23.7364  28.9588

          k = 0.5833-0.4167 0.5833 (   888 PWs)   bands (ev):

    -2.0695   0.4254  10.2153  10.4889  21.9405  22.9745  23.8750  29.4976

          k = 0.5000-0.3333 0.5000 (   880 PWs)   bands (ev):

    -2.5735   1.0351   9.9945  10.7935  22.2387  22.6750  23.8179  29.5407

          k = 0.4167-0.2500 0.4167 (   889 PWs)   bands (ev):

    -4.2707   3.4548  10.0453  11.3335  22.2739  22.5153  23.5428  29.1131

          k = 0.3333-0.1667 0.3333 (   897 PWs)   bands (ev):

    -5.7269   6.1977  10.3779  12.0499  21.6311  22.5366  22.9716  28.5899

          k = 0.2500-0.0833 0.2500 (   899 PWs)   bands (ev):

    -6.8290   9.0216  10.9816  12.8239  20.7312  21.9326  22.1551  28.3225

          k = 0.1667-0.0000 0.1667 (   903 PWs)   bands (ev):

    -7.5502  11.4797  11.9297  13.3998  19.9405  20.7958  21.1606  28.2335

          k = 0.0000 0.3333 0.0000 (   897 PWs)   bands (ev):

    -7.0246  11.0692  11.0692  11.5734  18.7705  22.9499  22.9499  26.9853

          k =-0.0833 0.4167-0.0833 (   887 PWs)   bands (ev):

    -6.3069   9.0252  10.2953  11.0724  19.0451  24.1131  24.1184  26.0123

          k =-0.1667 0.5000-0.1667 (   875 PWs)   bands (ev):

    -5.2113   6.4284   9.7700  10.2894  19.8868  24.8213  24.8832  25.7836

          k =-0.2500 0.5833-0.2500 (   885 PWs)   bands (ev):

    -3.7662   3.8177   9.4179   9.5474  20.5496  24.9472  25.3158  26.6629

          k = 0.6667-0.3333 0.6667 (   886 PWs)   bands (ev):

    -2.0908   1.4791   8.6754   9.6401  20.9662  24.6611  25.5064  28.2649

          k = 0.5833-0.2500 0.5833 (   888 PWs)   bands (ev):

    -1.6077   0.9085   8.1688  10.0328  21.4143  24.1577  25.4907  29.4604

          k = 0.5000-0.1667 0.5000 (   889 PWs)   bands (ev):

    -3.2258   3.0267   7.9553  10.6816  21.9769  23.4819  25.2432  29.0320

          k = 0.4167-0.0833 0.4167 (   888 PWs)   bands (ev):

    -4.7693   5.6030   8.0753  11.5002  22.4992  22.5681  24.5683  28.1494

          k = 0.3333 0.0000 0.3333 (   891 PWs)   bands (ev):

    -5.9844   8.0141   8.7835  12.3189  21.5015  22.6378  23.3313  27.9777

          k = 0.0000 0.5000 0.0000 (   881 PWs)   bands (ev):

    -5.7229   9.3192   9.4707   9.4707  18.2981  24.2206  25.5831  25.5831

          k =-0.0833 0.5833-0.0833 (   880 PWs)   bands (ev):

    -4.7604   7.3097   8.8933   8.9058  18.6336  23.2555  26.6297  26.6638

          k =-0.1667 0.6667-0.1667 (   883 PWs)   bands (ev):

    -3.4423   5.0461   7.8830   8.6287  19.4205  23.5964  27.0252  27.2772

          k = 0.7500-0.2500 0.7500 (   888 PWs)   bands (ev):

    -1.8406   2.8048   6.8698   8.6973  19.9339  25.3805  26.8222  27.5431

          k = 0.6667-0.1667 0.6667 (   892 PWs)   bands (ev):

    -0.6268   1.3936   6.0980   9.0892  20.4087  26.1995  27.5636  27.8527

          k = 0.5833-0.0833 0.5833 (   887 PWs)   bands (ev):

    -1.8738   2.9352   5.6669   9.7629  21.0616  25.2366  27.4116  29.0465

          k = 0.5000 0.0000 0.5000 (   889 PWs)   bands (ev):

    -3.4605   4.9970   5.9063  10.6277  21.8473  23.9503  26.4269  28.1698

          k = 0.0000 0.6667 0.0000 (   866 PWs)   bands (ev):

    -3.9330   6.6298   8.2458   8.2458  18.0125  21.6010  28.1095  28.1095

          k =-0.0833 0.7500-0.0833 (   889 PWs)   bands (ev):

    -2.7482   5.0961   7.3115   7.9079  18.4667  21.0864  28.9056  28.9973

          k = 0.8333-0.1667 0.8333 (   895 PWs)   bands (ev):

    -1.2571   3.5288   5.8195   7.9105  19.1156  22.2470  28.9111  29.3859

          k = 0.7500-0.0833 0.7500 (   886 PWs)   bands (ev):

     0.2340   2.1548   4.5124   8.2512  19.5678  24.7800  28.2236  29.4584

          k = 0.6667-0.0000 0.6667 (   893 PWs)   bands (ev):

    -0.3517   2.7462   4.0231   8.8959  20.2026  26.9481  27.6331  29.2410

          k = 0.0000 0.8333 0.0000 (   886 PWs)   bands (ev):

    -1.6990   3.7435   7.4855   7.4855  18.0695  19.7323  30.1293  30.1293

          k = 0.9167-0.0833 0.9167 (   894 PWs)   bands (ev):

    -0.3341   2.3639   6.6530   7.4028  18.6186  19.7529  30.4154  30.5742

          k = 0.8333 0.0000 0.8333 (   892 PWs)   bands (ev):

     1.0612   1.3667   5.1671   7.6663  19.0125  21.7970  29.7336  30.4029

          k = 0.0000-1.0000 0.0000 (   894 PWs)   bands (ev):

     0.9025   0.9025   7.2284   7.2284  18.5989  18.5989  30.9603  30.9603

          k =-0.1667 0.3333 0.0000 (   901 PWs)   bands (ev):

    -6.7634   9.7110  10.3035  12.3799  19.7798  22.7520  22.9067  27.4537

          k =-0.2500 0.4167-0.0833 (   888 PWs)   bands (ev):

    -5.7903   7.2811   9.4560  11.6927  20.6650  23.2841  24.0754  27.1535

          k =-0.3333 0.5000-0.1667 (   886 PWs)   bands (ev):

    -4.4539   4.5860   9.0680  10.8868  21.4897  23.3099  24.8500  27.6729

          k = 0.5833-0.4167 0.7500 (   890 PWs)   bands (ev):

    -2.8190   2.0729   8.9482  10.2233  21.8975  23.1511  25.2252  28.7882

          k = 0.5000-0.3333 0.6667 (   890 PWs)   bands (ev):

    -1.5294   0.4819   8.9599   9.9406  21.9977  23.0722  25.3340  29.4495

          k =-0.1667 0.5000 0.0000 (   884 PWs)   bands (ev):

    -5.4665   7.9808   8.7614  10.4480  19.3536  24.6622  25.1396  25.5769

          k =-0.2500 0.5833-0.0833 (   888 PWs)   bands (ev):

    -4.2586   5.7839   8.0294   9.6685  20.2819  24.4194  25.4732  26.6981

          k = 0.6667-0.3333 0.8333 (   886 PWs)   bands (ev):

    -2.7276   3.3638   7.6631   9.0054  20.9633  24.5814  26.3055  27.3363

          k = 0.5833-0.2500 0.7500 (   884 PWs)   bands (ev):

    -1.1386   1.3446   7.2595   8.8969  21.3769  24.3818  27.2737  28.2801

          k = 0.5000-0.1667 0.6667 (   883 PWs)   bands (ev):

    -1.6286   1.9420   6.9019   9.3274  21.8590  23.8813  27.1469  28.9023

          k = 0.4167-0.0833 0.5833 (   886 PWs)   bands (ev):

    -3.2756   4.2164   6.8025  10.0816  22.4396  23.0719  26.6879  27.6113

          k = 0.3333 0.0000 0.5000 (   883 PWs)   bands (ev):

    -4.7041   6.4370   7.3149  10.9651  21.7335  23.1568  25.6456  26.8294

          k =-0.1667 0.6667-0.0000 (   879 PWs)   bands (ev):

    -3.6862   6.1565   7.5811   8.3942  19.0797  22.4440  27.1252  28.1443

          k = 0.7500-0.2500 0.9167 (   885 PWs)   bands (ev):

    -2.2782   4.4219   6.5703   7.8334  20.0118  22.9386  27.1279  28.9916

          k = 0.6667-0.1667 0.8333 (   887 PWs)   bands (ev):

    -0.6717   2.5495   5.5881   7.8678  20.5391  24.9326  26.8452  29.0742

          k = 0.5833-0.0833 0.7500 (   890 PWs)   bands (ev):

    -0.2739   2.1771   4.8856   8.3500  21.0563  25.8663  27.7595  28.5167

          k = 0.5000 0.0000 0.6667 (   885 PWs)   bands (ev):

    -1.7971   3.8043   4.8760   9.1405  21.7653  24.6193  27.7458  28.5055

          k = 0.8333-0.1667 1.0000 (   888 PWs)   bands (ev):

    -1.4729   3.7649   6.8696   7.1246  19.1253  20.6847  29.1676  30.0562

          k = 0.7500-0.0833 0.9167 (   890 PWs)   bands (ev):

     0.0542   2.5123   5.4232   7.1042  19.9151  21.9981  28.9372  30.0102

          k = 0.6667 0.0000 0.8333 (   894 PWs)   bands (ev):

     0.9095   1.9952   4.1570   7.5670  20.3802  24.7297  27.9887  29.2217

          k =-0.1667-1.0000-0.0000 (   888 PWs)   bands (ev):

     1.0775   1.0775   6.6894   6.6894  19.6187  19.6187  30.4360  30.4360

          k = 0.6667-0.3333 1.0000 (   890 PWs)   bands (ev):

    -2.9581   5.0451   6.2037   8.7798  21.6121  23.7454  25.6971  28.2635

          k = 0.5833-0.2500 0.9167 (   892 PWs)   bands (ev):

    -1.3862   3.1990   5.7699   7.9442  22.5161  23.8388  26.4158  28.9438

          k = 0.5000-0.1667 0.8333 (   884 PWs)   bands (ev):

    -0.1822   1.7987   5.7721   7.5878  22.5701  24.0983  27.9450  28.1233

          k = 0.6667-0.1667 1.0000 (   891 PWs)   bands (ev):

    -0.8232   3.5723   5.5921   6.6810  21.6852  22.9143  26.8771  29.6165

          k = 0.5833-0.0833 0.9167 (   890 PWs)   bands (ev):

     0.6420   2.4089   4.7654   6.3846  22.4613  24.6569  26.6236  28.3331

          k = 0.5000 0.0000 0.8333 (   890 PWs)   bands (ev):

     0.1183   2.8523   4.4552   6.9516  22.8881  24.7986  26.8514  27.9598

          k =-0.3333-1.0000 0.0000 (   896 PWs)   bands (ev):

     1.5115   1.5115   5.6357   5.6357  22.0999  22.0999  28.6536  28.6536

          k =-0.5000-1.0000 0.0000 (   892 PWs)   bands (ev):

     1.8034   1.8034   5.0734   5.0734  24.4034  24.4034  26.5623  26.5623

     highest occupied, lowest unoccupied level (ev):    13.7328   18.0125

!    total energy              =     -22.89001898 Ry
     Harris-Foulkes estimate   =     -22.89001898 Ry
     estimated scf accuracy    <          3.1E-16 Ry

     The total energy is the sum of the following terms:

     one-electron contribution =       8.28443494 Ry
     hartree contribution      =       1.88428960 Ry
     xc contribution           =      -7.13685079 Ry
     ewald contribution        =     -25.92189273 Ry

     convergence has been achieved in  10 iterations

     Writing output data file c.save
 
     init_run     :      0.38s CPU      0.40s WALL (       1 calls)
     electrons    :      7.06s CPU      7.23s WALL (       1 calls)

     Called by init_run:
     wfcinit      :      0.37s CPU      0.38s WALL (       1 calls)
     potinit      :      0.00s CPU      0.00s WALL (       1 calls)

     Called by electrons:
     c_bands      :      6.85s CPU      7.00s WALL (      10 calls)
     sum_band     :      0.20s CPU      0.22s WALL (      10 calls)
     v_of_rho     :      0.00s CPU      0.00s WALL (      11 calls)
     mix_rho      :      0.00s CPU      0.00s WALL (      10 calls)

     Called by c_bands:
     init_us_2    :      0.01s CPU      0.01s WALL (    1512 calls)
     cegterg      :      6.79s CPU      6.94s WALL (     720 calls)

     Called by sum_band:

     Called by *egterg:
     h_psi        :      1.27s CPU      1.31s WALL (    2313 calls)
     g_psi        :      0.00s CPU      0.00s WALL (    1521 calls)
     cdiaghg      :      3.94s CPU      4.00s WALL (    2241 calls)

     Called by h_psi:
     h_psi:pot    :      1.26s CPU      1.31s WALL (    2313 calls)
     h_psi:calbec :      0.08s CPU      0.08s WALL (    2313 calls)
     vloc_psi     :      1.16s CPU      1.20s WALL (    2313 calls)
     add_vuspsi   :      0.02s CPU      0.02s WALL (    2313 calls)

     General routines
     calbec       :      0.07s CPU      0.07s WALL (    2313 calls)
     fft          :      0.00s CPU      0.01s WALL (      43 calls)
     fftw         :      1.27s CPU      1.32s WALL (   37262 calls)
 
     Parallel routines
     fft_scatter  :      0.95s CPU      0.99s WALL (   37305 calls)
 
     PWSCF        :     7.81s CPU         8.55s WALL

 
   This run was terminated on:  16:55:50   4Jan2021            

=------------------------------------------------------------------------------=
   JOB DONE.
=------------------------------------------------------------------------------=
