
     Program PWSCF v.6.1 (svn rev. 13369) starts on  9Jan2021 at  0:39: 8 

     This program is part of the open-source Quantum ESPRESSO suite
     for quantum simulation of materials; please cite
         "P. Giannozzi et al., J. Phys.:Condens. Matter 21 395502 (2009);
          URL http://www.quantum-espresso.org", 
     in publications or presentations arising from this work. More details at
     http://www.quantum-espresso.org/quote

     Parallel version (MPI & OpenMP), running on      80 processor cores
     Number of MPI processes:                80
     Threads/MPI process:                     1
     R & G space division:  proc/nbgrp/npool/nimage =      80
     Waiting for input...
     Reading input from standard input

     Current dimensions of program PWSCF are:
     Max number of different atomic species (ntypx) = 10
     Max number of k-points (npk) =  40000
     Max angular momentum in pseudopotentials (lmaxx) =  3

     IMPORTANT: XC functional enforced from input :
     Exchange-correlation      = PBE ( 1  4  3  4 0 0)
     Any further DFT definition will be discarded
     Please, verify this is what you really want


     Subspace diagonalization in iterative solution of the eigenvalue problem:
     one sub-group per band group will be used
     scalapack distributed-memory algorithm (size of sub-group:  6*  6 procs)

 
     Parallelization info
     --------------------
     sticks:   dense  smooth     PW     G-vecs:    dense   smooth      PW
     Min           4       4      1                   58       58       9
     Max           5       5      2                   64       64      14
     Sum         379     379    121                 4909     4909     941
 


     bravais-lattice index     =            2
     lattice parameter (alat)  =       6.7709  a.u.
     unit-cell volume          =      77.6019 (a.u.)^3
     number of atoms/cell      =            2
     number of atomic types    =            1
     number of electrons       =         8.00
     number of Kohn-Sham states=            8
     kinetic-energy cutoff     =      60.0000  Ry
     charge density cutoff     =     240.0000  Ry
     convergence threshold     =      1.0E-20
     mixing beta               =       0.7000
     number of iterations used =            8  plain     mixing
     Exchange-correlation      = PBE ( 1  4  3  4 0 0)

     celldm(1)=   6.770863  celldm(2)=   0.000000  celldm(3)=   0.000000
     celldm(4)=   0.000000  celldm(5)=   0.000000  celldm(6)=   0.000000

     crystal axes: (cart. coord. in units of alat)
               a(1) = (  -0.500000   0.000000   0.500000 )  
               a(2) = (   0.000000   0.500000   0.500000 )  
               a(3) = (  -0.500000   0.500000   0.000000 )  

     reciprocal axes: (cart. coord. in units 2 pi/alat)
               b(1) = ( -1.000000 -1.000000  1.000000 )  
               b(2) = (  1.000000  1.000000  1.000000 )  
               b(3) = ( -1.000000  1.000000 -1.000000 )  


     PseudoPot. # 1 for C  read from file:
     ../../C_ONCV_PBE-1.0.upf
     MD5 check sum: 40f8c33130f0afa4272e9dcc1c4fb0df
     Pseudo is Norm-conserving, Zval =  4.0
     Generated using ONCVPSP code by D. R. Hamann
     Using radial grid of  602 points,  4 beta functions with: 
                l(1) =   0
                l(2) =   0
                l(3) =   1
                l(4) =   1

     atomic species   valence    mass     pseudopotential
        C              4.00    12.01100     C ( 1.00)

     No symmetry found



   Cartesian axes

     site n.     atom                  positions (alat units)
         1           C   tau(   1) = (   0.0000000   0.0000000   0.0000000  )
         2           C   tau(   2) = (  -0.2500000   0.2500000   0.2500000  )

     number of k points=    64
                       cart. coord. in units 2pi/alat
        k(    1) = (   0.0000000   0.0000000   0.0000000), wk =   0.0312500
        k(    2) = (  -0.2500000   0.2500000  -0.2500000), wk =   0.0312500
        k(    3) = (   0.5000000  -0.5000000   0.5000000), wk =   0.0312500
        k(    4) = (   0.2500000  -0.2500000   0.2500000), wk =   0.0312500
        k(    5) = (   0.2500000   0.2500000   0.2500000), wk =   0.0312500
        k(    6) = (   0.0000000   0.5000000   0.0000000), wk =   0.0312500
        k(    7) = (   0.7500000  -0.2500000   0.7500000), wk =   0.0312500
        k(    8) = (   0.5000000   0.0000000   0.5000000), wk =   0.0312500
        k(    9) = (  -0.5000000  -0.5000000  -0.5000000), wk =   0.0312500
        k(   10) = (  -0.7500000  -0.2500000  -0.7500000), wk =   0.0312500
        k(   11) = (   0.0000000  -1.0000000   0.0000000), wk =   0.0312500
        k(   12) = (  -0.2500000  -0.7500000  -0.2500000), wk =   0.0312500
        k(   13) = (  -0.2500000  -0.2500000  -0.2500000), wk =   0.0312500
        k(   14) = (  -0.5000000   0.0000000  -0.5000000), wk =   0.0312500
        k(   15) = (   0.2500000  -0.7500000   0.2500000), wk =   0.0312500
        k(   16) = (   0.0000000  -0.5000000   0.0000000), wk =   0.0312500
        k(   17) = (  -0.2500000  -0.2500000   0.2500000), wk =   0.0312500
        k(   18) = (  -0.5000000   0.0000000   0.0000000), wk =   0.0312500
        k(   19) = (   0.2500000  -0.7500000   0.7500000), wk =   0.0312500
        k(   20) = (   0.0000000  -0.5000000   0.5000000), wk =   0.0312500
        k(   21) = (   0.0000000   0.0000000   0.5000000), wk =   0.0312500
        k(   22) = (  -0.2500000   0.2500000   0.2500000), wk =   0.0312500
        k(   23) = (   0.5000000  -0.5000000   1.0000000), wk =   0.0312500
        k(   24) = (   0.2500000  -0.2500000   0.7500000), wk =   0.0312500
        k(   25) = (  -0.7500000  -0.7500000  -0.2500000), wk =   0.0312500
        k(   26) = (  -1.0000000  -0.5000000  -0.5000000), wk =   0.0312500
        k(   27) = (  -0.2500000  -1.2500000   0.2500000), wk =   0.0312500
        k(   28) = (  -0.5000000  -1.0000000   0.0000000), wk =   0.0312500
        k(   29) = (  -0.5000000  -0.5000000   0.0000000), wk =   0.0312500
        k(   30) = (  -0.7500000  -0.2500000  -0.2500000), wk =   0.0312500
        k(   31) = (   0.0000000  -1.0000000   0.5000000), wk =   0.0312500
        k(   32) = (  -0.2500000  -0.7500000   0.2500000), wk =   0.0312500
        k(   33) = (   0.5000000   0.5000000  -0.5000000), wk =   0.0312500
        k(   34) = (   0.2500000   0.7500000  -0.7500000), wk =   0.0312500
        k(   35) = (   1.0000000   0.0000000   0.0000000), wk =   0.0312500
        k(   36) = (   0.7500000   0.2500000  -0.2500000), wk =   0.0312500
        k(   37) = (   0.7500000   0.7500000  -0.2500000), wk =   0.0312500
        k(   38) = (   0.5000000   1.0000000  -0.5000000), wk =   0.0312500
        k(   39) = (   1.2500000   0.2500000   0.2500000), wk =   0.0312500
        k(   40) = (   1.0000000   0.5000000   0.0000000), wk =   0.0312500
        k(   41) = (   0.0000000   0.0000000  -1.0000000), wk =   0.0312500
        k(   42) = (  -0.2500000   0.2500000  -1.2500000), wk =   0.0312500
        k(   43) = (   0.5000000  -0.5000000  -0.5000000), wk =   0.0312500
        k(   44) = (   0.2500000  -0.2500000  -0.7500000), wk =   0.0312500
        k(   45) = (   0.2500000   0.2500000  -0.7500000), wk =   0.0312500
        k(   46) = (   0.0000000   0.5000000  -1.0000000), wk =   0.0312500
        k(   47) = (   0.7500000  -0.2500000  -0.2500000), wk =   0.0312500
        k(   48) = (   0.5000000   0.0000000  -0.5000000), wk =   0.0312500
        k(   49) = (   0.2500000   0.2500000  -0.2500000), wk =   0.0312500
        k(   50) = (   0.0000000   0.5000000  -0.5000000), wk =   0.0312500
        k(   51) = (   0.7500000  -0.2500000   0.2500000), wk =   0.0312500
        k(   52) = (   0.5000000   0.0000000   0.0000000), wk =   0.0312500
        k(   53) = (   0.5000000   0.5000000   0.0000000), wk =   0.0312500
        k(   54) = (   0.2500000   0.7500000  -0.2500000), wk =   0.0312500
        k(   55) = (   1.0000000   0.0000000   0.5000000), wk =   0.0312500
        k(   56) = (   0.7500000   0.2500000   0.2500000), wk =   0.0312500
        k(   57) = (  -0.2500000  -0.2500000  -0.7500000), wk =   0.0312500
        k(   58) = (  -0.5000000   0.0000000  -1.0000000), wk =   0.0312500
        k(   59) = (   0.2500000  -0.7500000  -0.2500000), wk =   0.0312500
        k(   60) = (   0.0000000  -0.5000000  -0.5000000), wk =   0.0312500
        k(   61) = (   0.0000000   0.0000000  -0.5000000), wk =   0.0312500
        k(   62) = (  -0.2500000   0.2500000  -0.7500000), wk =   0.0312500
        k(   63) = (   0.5000000  -0.5000000   0.0000000), wk =   0.0312500
        k(   64) = (   0.2500000  -0.2500000  -0.2500000), wk =   0.0312500

     Dense  grid:     4909 G-vectors     FFT dimensions: (  24,  24,  24)

     Estimated max dynamical RAM per process >       0.17MB

     Estimated total allocated dynamical RAM >      13.48MB

     Initial potential from superposition of free atoms

     starting charge    7.98607, renormalised to    8.00000
     Starting wfc are random

     total cpu time spent up to now is        1.5 secs

     per-process dynamical memory:    32.4 Mb

     Self-consistent Calculation

     iteration #  1     ecut=    60.00 Ry     beta=0.70
     Davidson diagonalization with overlap
     ethr =  1.00E-02,  avg # of iterations =  7.2

     total cpu time spent up to now is        5.5 secs

     total energy              =     -22.76578957 Ry
     Harris-Foulkes estimate   =     -22.81535966 Ry
     estimated scf accuracy    <       0.11471175 Ry

     iteration #  2     ecut=    60.00 Ry     beta=0.70
     Davidson diagonalization with overlap
     ethr =  1.43E-03,  avg # of iterations =  2.4

     total cpu time spent up to now is        7.3 secs

     total energy              =     -22.77326884 Ry
     Harris-Foulkes estimate   =     -22.77359506 Ry
     estimated scf accuracy    <       0.00255519 Ry

     iteration #  3     ecut=    60.00 Ry     beta=0.70
     Davidson diagonalization with overlap
     ethr =  3.19E-05,  avg # of iterations =  2.9

     total cpu time spent up to now is        9.6 secs

     total energy              =     -22.77371773 Ry
     Harris-Foulkes estimate   =     -22.77370349 Ry
     estimated scf accuracy    <       0.00007785 Ry

     iteration #  4     ecut=    60.00 Ry     beta=0.70
     Davidson diagonalization with overlap
     ethr =  9.73E-07,  avg # of iterations =  2.1

     total cpu time spent up to now is       11.6 secs

     total energy              =     -22.77372255 Ry
     Harris-Foulkes estimate   =     -22.77372345 Ry
     estimated scf accuracy    <       0.00000212 Ry

     iteration #  5     ecut=    60.00 Ry     beta=0.70
     Davidson diagonalization with overlap
     ethr =  2.65E-08,  avg # of iterations =  2.4

     total cpu time spent up to now is       14.1 secs

     total energy              =     -22.77372282 Ry
     Harris-Foulkes estimate   =     -22.77372282 Ry
     estimated scf accuracy    <       0.00000006 Ry

     iteration #  6     ecut=    60.00 Ry     beta=0.70
     Davidson diagonalization with overlap
     ethr =  7.25E-10,  avg # of iterations =  2.5

     total cpu time spent up to now is       16.7 secs

     total energy              =     -22.77372284 Ry
     Harris-Foulkes estimate   =     -22.77372283 Ry
     estimated scf accuracy    <          4.8E-09 Ry

     iteration #  7     ecut=    60.00 Ry     beta=0.70
     Davidson diagonalization with overlap
     ethr =  5.94E-11,  avg # of iterations =  3.0

     total cpu time spent up to now is       19.9 secs

     total energy              =     -22.77372284 Ry
     Harris-Foulkes estimate   =     -22.77372284 Ry
     estimated scf accuracy    <          1.0E-10 Ry

     iteration #  8     ecut=    60.00 Ry     beta=0.70
     Davidson diagonalization with overlap
     ethr =  1.28E-12,  avg # of iterations =  3.0

     total cpu time spent up to now is       23.6 secs

     total energy              =     -22.77372284 Ry
     Harris-Foulkes estimate   =     -22.77372284 Ry
     estimated scf accuracy    <          2.7E-13 Ry

     iteration #  9     ecut=    60.00 Ry     beta=0.70
     Davidson diagonalization with overlap
     ethr =  1.00E-13,  avg # of iterations =  1.1

     total cpu time spent up to now is       25.7 secs

     total energy              =     -22.77372284 Ry
     Harris-Foulkes estimate   =     -22.77372284 Ry
     estimated scf accuracy    <          5.9E-15 Ry

     iteration # 10     ecut=    60.00 Ry     beta=0.70
     Davidson diagonalization with overlap
     ethr =  1.00E-13,  avg # of iterations =  1.0

     total cpu time spent up to now is       27.9 secs

     total energy              =     -22.77372284 Ry
     Harris-Foulkes estimate   =     -22.77372284 Ry
     estimated scf accuracy    <          5.2E-16 Ry

     iteration # 11     ecut=    60.00 Ry     beta=0.70
     Davidson diagonalization with overlap
     ethr =  1.00E-13,  avg # of iterations =  1.0

     total cpu time spent up to now is       30.3 secs

     total energy              =     -22.77372284 Ry
     Harris-Foulkes estimate   =     -22.77372284 Ry
     estimated scf accuracy    <          1.5E-18 Ry

     iteration # 12     ecut=    60.00 Ry     beta=0.70
     Davidson diagonalization with overlap
     ethr =  1.00E-13,  avg # of iterations =  1.0

     total cpu time spent up to now is       32.8 secs

     total energy              =     -22.77372284 Ry
     Harris-Foulkes estimate   =     -22.77372284 Ry
     estimated scf accuracy    <          3.6E-19 Ry

     iteration # 13     ecut=    60.00 Ry     beta=0.70
     Davidson diagonalization with overlap
     ethr =  1.00E-13,  avg # of iterations =  1.0

     total cpu time spent up to now is       35.5 secs

     total energy              =     -22.77372284 Ry
     Harris-Foulkes estimate   =     -22.77372284 Ry
     estimated scf accuracy    <          9.3E-20 Ry

     iteration # 14     ecut=    60.00 Ry     beta=0.70
     Davidson diagonalization with overlap
     ethr =  1.00E-13,  avg # of iterations =  1.0

     total cpu time spent up to now is       38.3 secs

     End of self-consistent calculation

          k = 0.0000 0.0000 0.0000 (   609 PWs)   bands (ev):

    -8.1661  13.1057  13.1057  13.1057  18.6681  18.6681  18.6681  26.1340

          k =-0.2500 0.2500-0.2500 (   601 PWs)   bands (ev):

    -6.4690   6.5885  11.3874  11.3874  20.8395  20.8395  21.1418  27.5174

          k = 0.5000-0.5000 0.5000 (   610 PWs)   bands (ev):

    -2.4690  -0.1092  10.3430  10.3430  21.5200  21.5200  21.7981  28.6789

          k = 0.2500-0.2500 0.2500 (   601 PWs)   bands (ev):

    -6.4690   6.5885  11.3874  11.3874  20.8395  20.8395  21.1418  27.5174

          k = 0.2500 0.2500 0.2500 (   601 PWs)   bands (ev):

    -6.4690   6.5885  11.3874  11.3874  20.8395  20.8395  21.1418  27.5174

          k = 0.0000 0.5000 0.0000 (   592 PWs)   bands (ev):

    -5.9054   8.6186   9.0457   9.0457  17.5349  23.2906  24.5741  24.5741

          k = 0.7500-0.2500 0.7500 (   608 PWs)   bands (ev):

    -2.2121   2.4295   6.4462   8.2957  19.1685  24.4521  25.7866  26.2600

          k = 0.5000 0.0000 0.5000 (   616 PWs)   bands (ev):

    -3.7473   4.4850   5.5985  10.1357  20.9848  23.0210  25.3261  26.8236

          k =-0.5000-0.5000-0.5000 (   610 PWs)   bands (ev):

    -2.4690  -0.1092  10.3430  10.3430  21.5200  21.5200  21.7981  28.6789

          k =-0.7500-0.2500-0.7500 (   608 PWs)   bands (ev):

    -2.2121   2.4295   6.4462   8.2957  19.1685  24.4521  25.7866  26.2600

          k = 0.0000-1.0000 0.0000 (   620 PWs)   bands (ev):

     0.4538   0.4538   6.8901   6.8901  17.8690  17.8690  29.6825  29.6825

          k =-0.2500-0.7500-0.2500 (   608 PWs)   bands (ev):

    -2.2121   2.4295   6.4462   8.2957  19.1685  24.4521  25.7866  26.2600

          k =-0.2500-0.2500-0.2500 (   601 PWs)   bands (ev):

    -6.4690   6.5885  11.3874  11.3874  20.8395  20.8395  21.1418  27.5174

          k =-0.5000 0.0000-0.5000 (   616 PWs)   bands (ev):

    -3.7473   4.4850   5.5985  10.1357  20.9848  23.0210  25.3261  26.8236

          k = 0.2500-0.7500 0.2500 (   608 PWs)   bands (ev):

    -2.2121   2.4295   6.4462   8.2957  19.1685  24.4521  25.7866  26.2600

          k = 0.0000-0.5000 0.0000 (   592 PWs)   bands (ev):

    -5.9054   8.6186   9.0457   9.0457  17.5349  23.2906  24.5741  24.5741

          k =-0.2500-0.2500 0.2500 (   601 PWs)   bands (ev):

    -6.4690   6.5885  11.3874  11.3874  20.8395  20.8395  21.1418  27.5174

          k =-0.5000 0.0000 0.0000 (   592 PWs)   bands (ev):

    -5.9054   8.6186   9.0457   9.0457  17.5349  23.2906  24.5741  24.5741

          k = 0.2500-0.7500 0.7500 (   608 PWs)   bands (ev):

    -2.2121   2.4295   6.4462   8.2957  19.1685  24.4521  25.7866  26.2600

          k = 0.0000-0.5000 0.5000 (   616 PWs)   bands (ev):

    -3.7473   4.4850   5.5985  10.1357  20.9848  23.0210  25.3261  26.8236

          k = 0.0000 0.0000 0.5000 (   592 PWs)   bands (ev):

    -5.9054   8.6186   9.0457   9.0457  17.5349  23.2906  24.5741  24.5741

          k =-0.2500 0.2500 0.2500 (   601 PWs)   bands (ev):

    -6.4690   6.5885  11.3874  11.3874  20.8395  20.8395  21.1418  27.5174

          k = 0.5000-0.5000 1.0000 (   616 PWs)   bands (ev):

    -3.7473   4.4850   5.5985  10.1357  20.9848  23.0210  25.3261  26.8236

          k = 0.2500-0.2500 0.7500 (   608 PWs)   bands (ev):

    -2.2121   2.4295   6.4462   8.2957  19.1685  24.4521  25.7866  26.2600

          k =-0.7500-0.7500-0.2500 (   608 PWs)   bands (ev):

    -2.2121   2.4295   6.4462   8.2957  19.1685  24.4521  25.7866  26.2600

          k =-1.0000-0.5000-0.5000 (   616 PWs)   bands (ev):

    -3.7473   4.4850   5.5985  10.1357  20.9848  23.0210  25.3261  26.8236

          k =-0.2500-1.2500 0.2500 (   608 PWs)   bands (ev):

    -2.2121   2.4295   6.4462   8.2957  19.1685  24.4521  25.7866  26.2600

          k =-0.5000-1.0000 0.0000 (   616 PWs)   bands (ev):

     1.2243   1.2243   4.9052   4.9052  23.6847  23.6847  25.2556  25.2556

          k =-0.5000-0.5000 0.0000 (   616 PWs)   bands (ev):

    -3.7473   4.4850   5.5985  10.1357  20.9848  23.0210  25.3261  26.8236

          k =-0.7500-0.2500-0.2500 (   608 PWs)   bands (ev):

    -2.2121   2.4295   6.4462   8.2957  19.1685  24.4521  25.7866  26.2600

          k = 0.0000-1.0000 0.5000 (   616 PWs)   bands (ev):

     1.2243   1.2243   4.9052   4.9052  23.6847  23.6847  25.2556  25.2556

          k =-0.2500-0.7500 0.2500 (   608 PWs)   bands (ev):

    -2.2121   2.4295   6.4462   8.2957  19.1685  24.4521  25.7866  26.2600

          k = 0.5000 0.5000-0.5000 (   610 PWs)   bands (ev):

    -2.4690  -0.1092  10.3430  10.3430  21.5200  21.5200  21.7981  28.6789

          k = 0.2500 0.7500-0.7500 (   608 PWs)   bands (ev):

    -2.2121   2.4295   6.4462   8.2957  19.1685  24.4521  25.7866  26.2600

          k = 1.0000 0.0000 0.0000 (   620 PWs)   bands (ev):

     0.4538   0.4538   6.8901   6.8901  17.8690  17.8690  29.6825  29.6825

          k = 0.7500 0.2500-0.2500 (   608 PWs)   bands (ev):

    -2.2121   2.4295   6.4462   8.2957  19.1685  24.4521  25.7866  26.2600

          k = 0.7500 0.7500-0.2500 (   608 PWs)   bands (ev):

    -2.2121   2.4295   6.4462   8.2957  19.1685  24.4521  25.7866  26.2600

          k = 0.5000 1.0000-0.5000 (   616 PWs)   bands (ev):

    -3.7473   4.4850   5.5985  10.1357  20.9848  23.0210  25.3261  26.8236

          k = 1.2500 0.2500 0.2500 (   608 PWs)   bands (ev):

    -2.2121   2.4295   6.4462   8.2957  19.1685  24.4521  25.7866  26.2600

          k = 1.0000 0.5000 0.0000 (   616 PWs)   bands (ev):

     1.2243   1.2243   4.9052   4.9052  23.6847  23.6847  25.2556  25.2556

          k = 0.0000 0.0000-1.0000 (   620 PWs)   bands (ev):

     0.4538   0.4538   6.8901   6.8901  17.8690  17.8690  29.6825  29.6825

          k =-0.2500 0.2500-1.2500 (   608 PWs)   bands (ev):

    -2.2121   2.4295   6.4462   8.2957  19.1685  24.4521  25.7866  26.2600

          k = 0.5000-0.5000-0.5000 (   610 PWs)   bands (ev):

    -2.4690  -0.1092  10.3430  10.3430  21.5200  21.5200  21.7981  28.6789

          k = 0.2500-0.2500-0.7500 (   608 PWs)   bands (ev):

    -2.2121   2.4295   6.4462   8.2957  19.1685  24.4521  25.7866  26.2600

          k = 0.2500 0.2500-0.7500 (   608 PWs)   bands (ev):

    -2.2121   2.4295   6.4462   8.2957  19.1685  24.4521  25.7866  26.2600

          k = 0.0000 0.5000-1.0000 (   616 PWs)   bands (ev):

     1.2243   1.2243   4.9052   4.9052  23.6847  23.6847  25.2556  25.2556

          k = 0.7500-0.2500-0.2500 (   608 PWs)   bands (ev):

    -2.2121   2.4295   6.4462   8.2957  19.1685  24.4521  25.7866  26.2600

          k = 0.5000 0.0000-0.5000 (   616 PWs)   bands (ev):

    -3.7473   4.4850   5.5985  10.1357  20.9848  23.0210  25.3261  26.8236

          k = 0.2500 0.2500-0.2500 (   601 PWs)   bands (ev):

    -6.4690   6.5885  11.3874  11.3874  20.8395  20.8395  21.1418  27.5174

          k = 0.0000 0.5000-0.5000 (   616 PWs)   bands (ev):

    -3.7473   4.4850   5.5985  10.1357  20.9848  23.0210  25.3261  26.8236

          k = 0.7500-0.2500 0.2500 (   608 PWs)   bands (ev):

    -2.2121   2.4295   6.4462   8.2957  19.1685  24.4521  25.7866  26.2600

          k = 0.5000 0.0000 0.0000 (   592 PWs)   bands (ev):

    -5.9054   8.6186   9.0457   9.0457  17.5349  23.2906  24.5741  24.5741

          k = 0.5000 0.5000 0.0000 (   616 PWs)   bands (ev):

    -3.7473   4.4850   5.5985  10.1357  20.9848  23.0210  25.3261  26.8236

          k = 0.2500 0.7500-0.2500 (   608 PWs)   bands (ev):

    -2.2121   2.4295   6.4462   8.2957  19.1685  24.4521  25.7866  26.2600

          k = 1.0000 0.0000 0.5000 (   616 PWs)   bands (ev):

     1.2243   1.2243   4.9052   4.9052  23.6847  23.6847  25.2556  25.2556

          k = 0.7500 0.2500 0.2500 (   608 PWs)   bands (ev):

    -2.2121   2.4295   6.4462   8.2957  19.1685  24.4521  25.7866  26.2600

          k =-0.2500-0.2500-0.7500 (   608 PWs)   bands (ev):

    -2.2121   2.4295   6.4462   8.2957  19.1685  24.4521  25.7866  26.2600

          k =-0.5000 0.0000-1.0000 (   616 PWs)   bands (ev):

     1.2243   1.2243   4.9052   4.9052  23.6847  23.6847  25.2556  25.2556

          k = 0.2500-0.7500-0.2500 (   608 PWs)   bands (ev):

    -2.2121   2.4295   6.4462   8.2957  19.1685  24.4521  25.7866  26.2600

          k = 0.0000-0.5000-0.5000 (   616 PWs)   bands (ev):

    -3.7473   4.4850   5.5985  10.1357  20.9848  23.0210  25.3261  26.8236

          k = 0.0000 0.0000-0.5000 (   592 PWs)   bands (ev):

    -5.9054   8.6186   9.0457   9.0457  17.5349  23.2906  24.5741  24.5741

          k =-0.2500 0.2500-0.7500 (   608 PWs)   bands (ev):

    -2.2121   2.4295   6.4462   8.2957  19.1685  24.4521  25.7866  26.2600

          k = 0.5000-0.5000 0.0000 (   616 PWs)   bands (ev):

    -3.7473   4.4850   5.5985  10.1357  20.9848  23.0210  25.3261  26.8236

          k = 0.2500-0.2500-0.2500 (   601 PWs)   bands (ev):

    -6.4690   6.5885  11.3874  11.3874  20.8395  20.8395  21.1418  27.5174

     highest occupied, lowest unoccupied level (ev):    13.1057   17.5349

!    total energy              =     -22.77372284 Ry
     Harris-Foulkes estimate   =     -22.77372284 Ry
     estimated scf accuracy    <          3.3E-21 Ry

     The total energy is the sum of the following terms:

     one-electron contribution =       7.81908296 Ry
     hartree contribution      =       1.96712055 Ry
     xc contribution           =      -7.10120250 Ry
     ewald contribution        =     -25.45872384 Ry

     convergence has been achieved in  14 iterations

     Writing output data file c.save
 
     init_run     :      0.69s CPU      1.14s WALL (       1 calls)
     electrons    :     36.44s CPU     36.85s WALL (       1 calls)

     Called by init_run:
     wfcinit      :      0.50s CPU      0.56s WALL (       1 calls)
     potinit      :      0.00s CPU      0.05s WALL (       1 calls)

     Called by electrons:
     c_bands      :     35.43s CPU     35.75s WALL (      14 calls)
     sum_band     :      0.81s CPU      0.84s WALL (      14 calls)
     v_of_rho     :      0.11s CPU      0.13s WALL (      15 calls)
     mix_rho      :      0.07s CPU      0.08s WALL (      14 calls)

     Called by c_bands:
     init_us_2    :      0.01s CPU      0.01s WALL (    1856 calls)
     cegterg      :     35.20s CPU     35.50s WALL (     896 calls)

     Called by sum_band:

     Called by *egterg:
     h_psi        :      4.12s CPU      4.24s WALL (    2974 calls)
     g_psi        :      0.00s CPU      0.00s WALL (    2014 calls)
     cdiaghg      :     17.02s CPU     17.11s WALL (    2910 calls)

     Called by h_psi:
     h_psi:pot    :      4.11s CPU      4.23s WALL (    2974 calls)
     h_psi:calbec :      0.37s CPU      0.39s WALL (    2974 calls)
     vloc_psi     :      3.70s CPU      3.80s WALL (    2974 calls)
     add_vuspsi   :      0.02s CPU      0.02s WALL (    2974 calls)

     General routines
     calbec       :      0.37s CPU      0.38s WALL (    2974 calls)
     fft          :      0.26s CPU      0.53s WALL (     164 calls)
     fftw         :      4.38s CPU      4.50s WALL (   46654 calls)
 
     Parallel routines
     fft_scatter  :      4.36s CPU      4.73s WALL (   46818 calls)
 
     PWSCF        :    41.68s CPU        45.35s WALL

 
   This run was terminated on:   0:39:53   9Jan2021            

=------------------------------------------------------------------------------=
   JOB DONE.
=------------------------------------------------------------------------------=
