
     Program PWSCF v.6.1 (svn rev. 13369) starts on 20Jan2021 at 12: 4:34 

     This program is part of the open-source Quantum ESPRESSO suite
     for quantum simulation of materials; please cite
         "P. Giannozzi et al., J. Phys.:Condens. Matter 21 395502 (2009);
          URL http://www.quantum-espresso.org", 
     in publications or presentations arising from this work. More details at
     http://www.quantum-espresso.org/quote

     Parallel version (MPI & OpenMP), running on      40 processor cores
     Number of MPI processes:                40
     Threads/MPI process:                     1
     R & G space division:  proc/nbgrp/npool/nimage =      40
     Waiting for input...
     Reading input from standard input

     Current dimensions of program PWSCF are:
     Max number of different atomic species (ntypx) = 10
     Max number of k-points (npk) =  40000
     Max angular momentum in pseudopotentials (lmaxx) =  3

     IMPORTANT: XC functional enforced from input :
     Exchange-correlation      = BLYP ( 1  3  1  3 0 0)
     Any further DFT definition will be discarded
     Please, verify this is what you really want


     Subspace diagonalization in iterative solution of the eigenvalue problem:
     one sub-group per band group will be used
     scalapack distributed-memory algorithm (size of sub-group:  4*  4 procs)

 
     Parallelization info
     --------------------
     sticks:   dense  smooth     PW     G-vecs:    dense   smooth      PW
     Min           9       9      3                  116      116      23
     Max          10      10      4                  120      120      27
     Sum         367     367    121                 4693     4693     941
 


     bravais-lattice index     =            2
     lattice parameter (alat)  =       6.7242  a.u.
     unit-cell volume          =      76.0093 (a.u.)^3
     number of atoms/cell      =            2
     number of atomic types    =            1
     number of electrons       =         8.00
     number of Kohn-Sham states=            8
     kinetic-energy cutoff     =      60.0000  Ry
     charge density cutoff     =     240.0000  Ry
     convergence threshold     =      1.0E-15
     mixing beta               =       0.7000
     number of iterations used =            8  local-TF  mixing
     Exchange-correlation      = BLYP ( 1  3  1  3 0 0)
     nstep                     =           50


     celldm(1)=   6.724225  celldm(2)=   0.000000  celldm(3)=   0.000000
     celldm(4)=   0.000000  celldm(5)=   0.000000  celldm(6)=   0.000000

     crystal axes: (cart. coord. in units of alat)
               a(1) = (  -0.500000   0.000000   0.500000 )  
               a(2) = (   0.000000   0.500000   0.500000 )  
               a(3) = (  -0.500000   0.500000   0.000000 )  

     reciprocal axes: (cart. coord. in units 2 pi/alat)
               b(1) = ( -1.000000 -1.000000  1.000000 )  
               b(2) = (  1.000000  1.000000  1.000000 )  
               b(3) = ( -1.000000  1.000000 -1.000000 )  


     PseudoPot. # 1 for C  read from file:
     ../C_ONCV_PBE-1.0.upf
     MD5 check sum: 40f8c33130f0afa4272e9dcc1c4fb0df
     Pseudo is Norm-conserving, Zval =  4.0
     Generated using ONCVPSP code by D. R. Hamann
     Using radial grid of  602 points,  4 beta functions with: 
                l(1) =   0
                l(2) =   0
                l(3) =   1
                l(4) =   1

     atomic species   valence    mass     pseudopotential
        C              4.00    12.01100     C ( 1.00)

     No symmetry found



   Cartesian axes

     site n.     atom                  positions (alat units)
         1           C   tau(   1) = (   0.0000000   0.0000000   0.0000000  )
         2           C   tau(   2) = (  -0.2500000   0.2500000   0.2500000  )

     number of k points=    64
                       cart. coord. in units 2pi/alat
        k(    1) = (   0.0000000   0.0000000   0.0000000), wk =   0.0312500
        k(    2) = (  -0.2500000   0.2500000  -0.2500000), wk =   0.0312500
        k(    3) = (   0.5000000  -0.5000000   0.5000000), wk =   0.0312500
        k(    4) = (   0.2500000  -0.2500000   0.2500000), wk =   0.0312500
        k(    5) = (   0.2500000   0.2500000   0.2500000), wk =   0.0312500
        k(    6) = (   0.0000000   0.5000000   0.0000000), wk =   0.0312500
        k(    7) = (   0.7500000  -0.2500000   0.7500000), wk =   0.0312500
        k(    8) = (   0.5000000   0.0000000   0.5000000), wk =   0.0312500
        k(    9) = (  -0.5000000  -0.5000000  -0.5000000), wk =   0.0312500
        k(   10) = (  -0.7500000  -0.2500000  -0.7500000), wk =   0.0312500
        k(   11) = (   0.0000000  -1.0000000   0.0000000), wk =   0.0312500
        k(   12) = (  -0.2500000  -0.7500000  -0.2500000), wk =   0.0312500
        k(   13) = (  -0.2500000  -0.2500000  -0.2500000), wk =   0.0312500
        k(   14) = (  -0.5000000   0.0000000  -0.5000000), wk =   0.0312500
        k(   15) = (   0.2500000  -0.7500000   0.2500000), wk =   0.0312500
        k(   16) = (   0.0000000  -0.5000000   0.0000000), wk =   0.0312500
        k(   17) = (  -0.2500000  -0.2500000   0.2500000), wk =   0.0312500
        k(   18) = (  -0.5000000   0.0000000   0.0000000), wk =   0.0312500
        k(   19) = (   0.2500000  -0.7500000   0.7500000), wk =   0.0312500
        k(   20) = (   0.0000000  -0.5000000   0.5000000), wk =   0.0312500
        k(   21) = (   0.0000000   0.0000000   0.5000000), wk =   0.0312500
        k(   22) = (  -0.2500000   0.2500000   0.2500000), wk =   0.0312500
        k(   23) = (   0.5000000  -0.5000000   1.0000000), wk =   0.0312500
        k(   24) = (   0.2500000  -0.2500000   0.7500000), wk =   0.0312500
        k(   25) = (  -0.7500000  -0.7500000  -0.2500000), wk =   0.0312500
        k(   26) = (  -1.0000000  -0.5000000  -0.5000000), wk =   0.0312500
        k(   27) = (  -0.2500000  -1.2500000   0.2500000), wk =   0.0312500
        k(   28) = (  -0.5000000  -1.0000000   0.0000000), wk =   0.0312500
        k(   29) = (  -0.5000000  -0.5000000   0.0000000), wk =   0.0312500
        k(   30) = (  -0.7500000  -0.2500000  -0.2500000), wk =   0.0312500
        k(   31) = (   0.0000000  -1.0000000   0.5000000), wk =   0.0312500
        k(   32) = (  -0.2500000  -0.7500000   0.2500000), wk =   0.0312500
        k(   33) = (   0.5000000   0.5000000  -0.5000000), wk =   0.0312500
        k(   34) = (   0.2500000   0.7500000  -0.7500000), wk =   0.0312500
        k(   35) = (   1.0000000   0.0000000   0.0000000), wk =   0.0312500
        k(   36) = (   0.7500000   0.2500000  -0.2500000), wk =   0.0312500
        k(   37) = (   0.7500000   0.7500000  -0.2500000), wk =   0.0312500
        k(   38) = (   0.5000000   1.0000000  -0.5000000), wk =   0.0312500
        k(   39) = (   1.2500000   0.2500000   0.2500000), wk =   0.0312500
        k(   40) = (   1.0000000   0.5000000   0.0000000), wk =   0.0312500
        k(   41) = (   0.0000000   0.0000000  -1.0000000), wk =   0.0312500
        k(   42) = (  -0.2500000   0.2500000  -1.2500000), wk =   0.0312500
        k(   43) = (   0.5000000  -0.5000000  -0.5000000), wk =   0.0312500
        k(   44) = (   0.2500000  -0.2500000  -0.7500000), wk =   0.0312500
        k(   45) = (   0.2500000   0.2500000  -0.7500000), wk =   0.0312500
        k(   46) = (   0.0000000   0.5000000  -1.0000000), wk =   0.0312500
        k(   47) = (   0.7500000  -0.2500000  -0.2500000), wk =   0.0312500
        k(   48) = (   0.5000000   0.0000000  -0.5000000), wk =   0.0312500
        k(   49) = (   0.2500000   0.2500000  -0.2500000), wk =   0.0312500
        k(   50) = (   0.0000000   0.5000000  -0.5000000), wk =   0.0312500
        k(   51) = (   0.7500000  -0.2500000   0.2500000), wk =   0.0312500
        k(   52) = (   0.5000000   0.0000000   0.0000000), wk =   0.0312500
        k(   53) = (   0.5000000   0.5000000   0.0000000), wk =   0.0312500
        k(   54) = (   0.2500000   0.7500000  -0.2500000), wk =   0.0312500
        k(   55) = (   1.0000000   0.0000000   0.5000000), wk =   0.0312500
        k(   56) = (   0.7500000   0.2500000   0.2500000), wk =   0.0312500
        k(   57) = (  -0.2500000  -0.2500000  -0.7500000), wk =   0.0312500
        k(   58) = (  -0.5000000   0.0000000  -1.0000000), wk =   0.0312500
        k(   59) = (   0.2500000  -0.7500000  -0.2500000), wk =   0.0312500
        k(   60) = (   0.0000000  -0.5000000  -0.5000000), wk =   0.0312500
        k(   61) = (   0.0000000   0.0000000  -0.5000000), wk =   0.0312500
        k(   62) = (  -0.2500000   0.2500000  -0.7500000), wk =   0.0312500
        k(   63) = (   0.5000000  -0.5000000   0.0000000), wk =   0.0312500
        k(   64) = (   0.2500000  -0.2500000  -0.2500000), wk =   0.0312500

     Dense  grid:     4693 G-vectors     FFT dimensions: (  24,  24,  24)

     Estimated max dynamical RAM per process >       0.25MB

     Estimated total allocated dynamical RAM >      10.14MB

     Initial potential from superposition of free atoms

     starting charge    7.98607, renormalised to    8.00000
     Starting wfc are random

     total cpu time spent up to now is        1.8 secs

     per-process dynamical memory:    18.4 Mb

     Self-consistent Calculation

     iteration #  1     ecut=    60.00 Ry     beta=0.70
     Davidson diagonalization with overlap
     ethr =  1.00E-02,  avg # of iterations =  7.0

     total cpu time spent up to now is        3.5 secs

     total energy              =     -22.63455456 Ry
     Harris-Foulkes estimate   =     -22.67664366 Ry
     estimated scf accuracy    <       0.14168641 Ry

     iteration #  2     ecut=    60.00 Ry     beta=0.70
     Davidson diagonalization with overlap
     ethr =  1.77E-03,  avg # of iterations =  1.2

     total cpu time spent up to now is        4.0 secs

     total energy              =     -22.62335325 Ry
     Harris-Foulkes estimate   =     -22.63815564 Ry
     estimated scf accuracy    <       0.03292965 Ry

     iteration #  3     ecut=    60.00 Ry     beta=0.70
     Davidson diagonalization with overlap
     ethr =  4.12E-04,  avg # of iterations =  2.2

     total cpu time spent up to now is        4.6 secs

     total energy              =     -22.62701041 Ry
     Harris-Foulkes estimate   =     -22.62690637 Ry
     estimated scf accuracy    <       0.00018202 Ry

     iteration #  4     ecut=    60.00 Ry     beta=0.70
     Davidson diagonalization with overlap
     ethr =  2.28E-06,  avg # of iterations =  3.0

     total cpu time spent up to now is        5.5 secs

     total energy              =     -22.62709334 Ry
     Harris-Foulkes estimate   =     -22.62710920 Ry
     estimated scf accuracy    <       0.00004291 Ry

     iteration #  5     ecut=    60.00 Ry     beta=0.70
     Davidson diagonalization with overlap
     ethr =  5.36E-07,  avg # of iterations =  2.2

     total cpu time spent up to now is        6.2 secs

     total energy              =     -22.62709733 Ry
     Harris-Foulkes estimate   =     -22.62709893 Ry
     estimated scf accuracy    <       0.00000383 Ry

     iteration #  6     ecut=    60.00 Ry     beta=0.70
     Davidson diagonalization with overlap
     ethr =  4.79E-08,  avg # of iterations =  2.1

     total cpu time spent up to now is        6.8 secs

     total energy              =     -22.62709772 Ry
     Harris-Foulkes estimate   =     -22.62709772 Ry
     estimated scf accuracy    <       0.00000001 Ry

     iteration #  7     ecut=    60.00 Ry     beta=0.70
     Davidson diagonalization with overlap
     ethr =  1.36E-10,  avg # of iterations =  3.7

     total cpu time spent up to now is        7.8 secs

     total energy              =     -22.62709772 Ry
     Harris-Foulkes estimate   =     -22.62709772 Ry
     estimated scf accuracy    <          6.4E-10 Ry

     iteration #  8     ecut=    60.00 Ry     beta=0.70
     Davidson diagonalization with overlap
     ethr =  7.95E-12,  avg # of iterations =  2.1

     total cpu time spent up to now is        8.4 secs

     total energy              =     -22.62709772 Ry
     Harris-Foulkes estimate   =     -22.62709772 Ry
     estimated scf accuracy    <          5.6E-11 Ry

     iteration #  9     ecut=    60.00 Ry     beta=0.70
     Davidson diagonalization with overlap
     ethr =  7.01E-13,  avg # of iterations =  3.0

     total cpu time spent up to now is        9.3 secs

     total energy              =     -22.62709772 Ry
     Harris-Foulkes estimate   =     -22.62709772 Ry
     estimated scf accuracy    <          1.7E-13 Ry

     iteration # 10     ecut=    60.00 Ry     beta=0.70
     Davidson diagonalization with overlap
     ethr =  1.00E-13,  avg # of iterations =  1.0

     total cpu time spent up to now is        9.7 secs

     total energy              =     -22.62709772 Ry
     Harris-Foulkes estimate   =     -22.62709772 Ry
     estimated scf accuracy    <          2.2E-14 Ry

     iteration # 11     ecut=    60.00 Ry     beta=0.70
     Davidson diagonalization with overlap
     ethr =  1.00E-13,  avg # of iterations =  1.0

     total cpu time spent up to now is       10.1 secs

     total energy              =     -22.62709772 Ry
     Harris-Foulkes estimate   =     -22.62709772 Ry
     estimated scf accuracy    <          1.5E-15 Ry

     iteration # 12     ecut=    60.00 Ry     beta=0.70
     Davidson diagonalization with overlap
     ethr =  1.00E-13,  avg # of iterations =  1.0

     total cpu time spent up to now is       10.5 secs

     End of self-consistent calculation

          k = 0.0000 0.0000 0.0000 (   609 PWs)   bands (ev):

    -7.5327  13.7890  13.7890  13.7890  19.5741  19.5741  19.5741  27.3428

          k =-0.2500 0.2500-0.2500 (   595 PWs)   bands (ev):

    -5.8239   7.3007  12.0734  12.0734  21.7648  21.7648  22.1526  28.6488

          k = 0.5000-0.5000 0.5000 (   580 PWs)   bands (ev):

    -1.8014   0.5837  11.0193  11.0193  22.4927  22.4927  22.9005  29.8327

          k = 0.2500-0.2500 0.2500 (   595 PWs)   bands (ev):

    -5.8239   7.3007  12.0734  12.0734  21.7648  21.7648  22.1526  28.6488

          k = 0.2500 0.2500 0.2500 (   595 PWs)   bands (ev):

    -5.8239   7.3007  12.0734  12.0734  21.7648  21.7648  22.1526  28.6488

          k = 0.0000 0.5000 0.0000 (   592 PWs)   bands (ev):

    -5.2565   9.3235   9.7341   9.7341  18.5178  24.4498  25.5097  25.5097

          k = 0.7500-0.2500 0.7500 (   602 PWs)   bands (ev):

    -1.5418   3.1232   7.1527   8.9751  20.2132  25.5329  26.7663  27.3036

          k = 0.5000 0.0000 0.5000 (   602 PWs)   bands (ev):

    -3.0852   5.1819   6.3115  10.8168  22.0168  23.9758  26.3328  27.9471

          k =-0.5000-0.5000-0.5000 (   580 PWs)   bands (ev):

    -1.8014   0.5837  11.0193  11.0193  22.4927  22.4927  22.9005  29.8327

          k =-0.7500-0.2500-0.7500 (   602 PWs)   bands (ev):

    -1.5418   3.1232   7.1527   8.9751  20.2132  25.5329  26.7663  27.3036

          k = 0.0000-1.0000 0.0000 (   588 PWs)   bands (ev):

     1.1391   1.1391   7.5666   7.5666  18.9416  18.9416  30.6992  30.6992

          k =-0.2500-0.7500-0.2500 (   602 PWs)   bands (ev):

    -1.5418   3.1232   7.1527   8.9751  20.2132  25.5329  26.7663  27.3036

          k =-0.2500-0.2500-0.2500 (   595 PWs)   bands (ev):

    -5.8239   7.3007  12.0734  12.0734  21.7648  21.7648  22.1526  28.6488

          k =-0.5000 0.0000-0.5000 (   602 PWs)   bands (ev):

    -3.0852   5.1819   6.3115  10.8168  22.0168  23.9758  26.3328  27.9471

          k = 0.2500-0.7500 0.2500 (   602 PWs)   bands (ev):

    -1.5418   3.1232   7.1527   8.9751  20.2132  25.5329  26.7663  27.3036

          k = 0.0000-0.5000 0.0000 (   592 PWs)   bands (ev):

    -5.2565   9.3235   9.7341   9.7341  18.5178  24.4498  25.5097  25.5097

          k =-0.2500-0.2500 0.2500 (   595 PWs)   bands (ev):

    -5.8239   7.3007  12.0734  12.0734  21.7648  21.7648  22.1526  28.6488

          k =-0.5000 0.0000 0.0000 (   592 PWs)   bands (ev):

    -5.2565   9.3235   9.7341   9.7341  18.5178  24.4498  25.5097  25.5097

          k = 0.2500-0.7500 0.7500 (   602 PWs)   bands (ev):

    -1.5418   3.1232   7.1527   8.9751  20.2132  25.5329  26.7663  27.3036

          k = 0.0000-0.5000 0.5000 (   602 PWs)   bands (ev):

    -3.0852   5.1819   6.3115  10.8168  22.0168  23.9758  26.3328  27.9471

          k = 0.0000 0.0000 0.5000 (   592 PWs)   bands (ev):

    -5.2565   9.3235   9.7341   9.7341  18.5178  24.4498  25.5097  25.5097

          k =-0.2500 0.2500 0.2500 (   595 PWs)   bands (ev):

    -5.8239   7.3007  12.0734  12.0734  21.7648  21.7648  22.1526  28.6488

          k = 0.5000-0.5000 1.0000 (   602 PWs)   bands (ev):

    -3.0852   5.1819   6.3115  10.8168  22.0168  23.9758  26.3328  27.9471

          k = 0.2500-0.2500 0.7500 (   602 PWs)   bands (ev):

    -1.5418   3.1232   7.1527   8.9751  20.2132  25.5329  26.7663  27.3036

          k =-0.7500-0.7500-0.2500 (   602 PWs)   bands (ev):

    -1.5418   3.1232   7.1527   8.9751  20.2132  25.5329  26.7663  27.3036

          k =-1.0000-0.5000-0.5000 (   602 PWs)   bands (ev):

    -3.0852   5.1819   6.3115  10.8168  22.0168  23.9758  26.3328  27.9471

          k =-0.2500-1.2500 0.2500 (   602 PWs)   bands (ev):

    -1.5418   3.1232   7.1527   8.9751  20.2132  25.5329  26.7663  27.3036

          k =-0.5000-1.0000 0.0000 (   604 PWs)   bands (ev):

     1.9061   1.9061   5.6137   5.6137  24.7364  24.7364  26.3044  26.3044

          k =-0.5000-0.5000 0.0000 (   602 PWs)   bands (ev):

    -3.0852   5.1819   6.3115  10.8168  22.0168  23.9758  26.3328  27.9471

          k =-0.7500-0.2500-0.2500 (   602 PWs)   bands (ev):

    -1.5418   3.1232   7.1527   8.9751  20.2132  25.5329  26.7663  27.3036

          k = 0.0000-1.0000 0.5000 (   604 PWs)   bands (ev):

     1.9061   1.9061   5.6137   5.6137  24.7364  24.7364  26.3044  26.3044

          k =-0.2500-0.7500 0.2500 (   602 PWs)   bands (ev):

    -1.5418   3.1232   7.1527   8.9751  20.2132  25.5329  26.7663  27.3036

          k = 0.5000 0.5000-0.5000 (   580 PWs)   bands (ev):

    -1.8014   0.5837  11.0193  11.0193  22.4927  22.4927  22.9005  29.8327

          k = 0.2500 0.7500-0.7500 (   602 PWs)   bands (ev):

    -1.5418   3.1232   7.1527   8.9751  20.2132  25.5329  26.7663  27.3036

          k = 1.0000 0.0000 0.0000 (   588 PWs)   bands (ev):

     1.1391   1.1391   7.5666   7.5666  18.9416  18.9416  30.6992  30.6992

          k = 0.7500 0.2500-0.2500 (   602 PWs)   bands (ev):

    -1.5418   3.1232   7.1527   8.9751  20.2132  25.5329  26.7663  27.3036

          k = 0.7500 0.7500-0.2500 (   602 PWs)   bands (ev):

    -1.5418   3.1232   7.1527   8.9751  20.2132  25.5329  26.7663  27.3036

          k = 0.5000 1.0000-0.5000 (   602 PWs)   bands (ev):

    -3.0852   5.1819   6.3115  10.8168  22.0168  23.9758  26.3328  27.9471

          k = 1.2500 0.2500 0.2500 (   602 PWs)   bands (ev):

    -1.5418   3.1232   7.1527   8.9751  20.2132  25.5329  26.7663  27.3036

          k = 1.0000 0.5000 0.0000 (   604 PWs)   bands (ev):

     1.9061   1.9061   5.6137   5.6137  24.7364  24.7364  26.3044  26.3044

          k = 0.0000 0.0000-1.0000 (   588 PWs)   bands (ev):

     1.1391   1.1391   7.5666   7.5666  18.9416  18.9416  30.6992  30.6992

          k =-0.2500 0.2500-1.2500 (   602 PWs)   bands (ev):

    -1.5418   3.1232   7.1527   8.9751  20.2132  25.5329  26.7663  27.3036

          k = 0.5000-0.5000-0.5000 (   580 PWs)   bands (ev):

    -1.8014   0.5837  11.0193  11.0193  22.4927  22.4927  22.9005  29.8327

          k = 0.2500-0.2500-0.7500 (   602 PWs)   bands (ev):

    -1.5418   3.1232   7.1527   8.9751  20.2132  25.5329  26.7663  27.3036

          k = 0.2500 0.2500-0.7500 (   602 PWs)   bands (ev):

    -1.5418   3.1232   7.1527   8.9751  20.2132  25.5329  26.7663  27.3036

          k = 0.0000 0.5000-1.0000 (   604 PWs)   bands (ev):

     1.9061   1.9061   5.6137   5.6137  24.7364  24.7364  26.3044  26.3044

          k = 0.7500-0.2500-0.2500 (   602 PWs)   bands (ev):

    -1.5418   3.1232   7.1527   8.9751  20.2132  25.5329  26.7663  27.3036

          k = 0.5000 0.0000-0.5000 (   602 PWs)   bands (ev):

    -3.0852   5.1819   6.3115  10.8168  22.0168  23.9758  26.3328  27.9471

          k = 0.2500 0.2500-0.2500 (   595 PWs)   bands (ev):

    -5.8239   7.3007  12.0734  12.0734  21.7648  21.7648  22.1526  28.6488

          k = 0.0000 0.5000-0.5000 (   602 PWs)   bands (ev):

    -3.0852   5.1819   6.3115  10.8168  22.0168  23.9758  26.3328  27.9471

          k = 0.7500-0.2500 0.2500 (   602 PWs)   bands (ev):

    -1.5418   3.1232   7.1527   8.9751  20.2132  25.5329  26.7663  27.3036

          k = 0.5000 0.0000 0.0000 (   592 PWs)   bands (ev):

    -5.2565   9.3235   9.7341   9.7341  18.5178  24.4498  25.5097  25.5097

          k = 0.5000 0.5000 0.0000 (   602 PWs)   bands (ev):

    -3.0852   5.1819   6.3115  10.8168  22.0168  23.9758  26.3328  27.9471

          k = 0.2500 0.7500-0.2500 (   602 PWs)   bands (ev):

    -1.5418   3.1232   7.1527   8.9751  20.2132  25.5329  26.7663  27.3036

          k = 1.0000 0.0000 0.5000 (   604 PWs)   bands (ev):

     1.9061   1.9061   5.6137   5.6137  24.7364  24.7364  26.3044  26.3044

          k = 0.7500 0.2500 0.2500 (   602 PWs)   bands (ev):

    -1.5418   3.1232   7.1527   8.9751  20.2132  25.5329  26.7663  27.3036

          k =-0.2500-0.2500-0.7500 (   602 PWs)   bands (ev):

    -1.5418   3.1232   7.1527   8.9751  20.2132  25.5329  26.7663  27.3036

          k =-0.5000 0.0000-1.0000 (   604 PWs)   bands (ev):

     1.9061   1.9061   5.6137   5.6137  24.7364  24.7364  26.3044  26.3044

          k = 0.2500-0.7500-0.2500 (   602 PWs)   bands (ev):

    -1.5418   3.1232   7.1527   8.9751  20.2132  25.5329  26.7663  27.3036

          k = 0.0000-0.5000-0.5000 (   602 PWs)   bands (ev):

    -3.0852   5.1819   6.3115  10.8168  22.0168  23.9758  26.3328  27.9471

          k = 0.0000 0.0000-0.5000 (   592 PWs)   bands (ev):

    -5.2565   9.3235   9.7341   9.7341  18.5178  24.4498  25.5097  25.5097

          k =-0.2500 0.2500-0.7500 (   602 PWs)   bands (ev):

    -1.5418   3.1232   7.1527   8.9751  20.2132  25.5329  26.7663  27.3036

          k = 0.5000-0.5000 0.0000 (   602 PWs)   bands (ev):

    -3.0852   5.1819   6.3115  10.8168  22.0168  23.9758  26.3328  27.9471

          k = 0.2500-0.2500-0.2500 (   595 PWs)   bands (ev):

    -5.8239   7.3007  12.0734  12.0734  21.7648  21.7648  22.1526  28.6488

     highest occupied, lowest unoccupied level (ev):    13.7890   18.5178

!    total energy              =     -22.62709772 Ry
     Harris-Foulkes estimate   =     -22.62709772 Ry
     estimated scf accuracy    <          5.2E-17 Ry

     The total energy is the sum of the following terms:

     one-electron contribution =       8.00781490 Ry
     hartree contribution      =       2.01746641 Ry
     xc contribution           =      -7.01707746 Ry
     ewald contribution        =     -25.63530157 Ry

     convergence has been achieved in  12 iterations

     Forces acting on atoms (cartesian axes, Ry/au):

     atom    1 type  1   force =    -0.00000000   -0.00000000   -0.00000000
     atom    2 type  1   force =     0.00000000    0.00000000    0.00000000

     Total force =     0.000000     Total SCF correction =     0.000000
     SCF correction compared to forces is large: reduce conv_thr to get better values


     Computing stress (Cartesian axis) and pressure

          total   stress  (Ry/bohr**3)                   (kbar)     P=   98.83
   0.00067186  -0.00000000  -0.00000000         98.83     -0.00     -0.00
  -0.00000000   0.00067186   0.00000000         -0.00     98.83      0.00
  -0.00000000   0.00000000   0.00067186         -0.00      0.00     98.83


     BFGS Geometry Optimization

     number of scf cycles    =   1
     number of bfgs steps    =   0

     enthalpy new            =     -22.6270977241 Ry

     new trust radius        =       0.0292874090 bohr
     new conv_thr            =            1.0E-15 Ry

     new unit-cell volume =     79.90405 a.u.^3 (    11.84056 Ang^3 )
     density =      3.36888 g/cm^3

CELL_PARAMETERS (alat=  6.72422507)
  -0.508398227   0.000000000   0.508398227
  -0.000000000   0.508398227   0.508398227
  -0.508398227   0.508398227   0.000000000

ATOMIC_POSITIONS (crystal)
C       -0.000000000  -0.000000000   0.000000000
C        0.250000000   0.250000000   0.250000000



     Writing output data file c.save
     NEW-OLD atomic charge density approx. for the potential
     extrapolated charge    8.38926, renormalised to    8.00000

     total cpu time spent up to now is       10.7 secs

     per-process dynamical memory:    21.3 Mb

     Self-consistent Calculation

     iteration #  1     ecut=    60.00 Ry     beta=0.70
     Davidson diagonalization with overlap
     ethr =  1.00E-06,  avg # of iterations =  4.4

     total cpu time spent up to now is       11.8 secs

     total energy              =     -22.62439846 Ry
     Harris-Foulkes estimate   =     -22.86572534 Ry
     estimated scf accuracy    <       0.00094961 Ry

     iteration #  2     ecut=    60.00 Ry     beta=0.70
     Davidson diagonalization with overlap
     ethr =  1.19E-05,  avg # of iterations =  3.6

     total cpu time spent up to now is       12.8 secs

     total energy              =     -22.62677366 Ry
     Harris-Foulkes estimate   =     -22.62685292 Ry
     estimated scf accuracy    <       0.00032923 Ry

     iteration #  3     ecut=    60.00 Ry     beta=0.70
     Davidson diagonalization with overlap
     ethr =  4.12E-06,  avg # of iterations =  1.0

     total cpu time spent up to now is       13.2 secs

     total energy              =     -22.62671023 Ry
     Harris-Foulkes estimate   =     -22.62677822 Ry
     estimated scf accuracy    <       0.00014141 Ry

     iteration #  4     ecut=    60.00 Ry     beta=0.70
     Davidson diagonalization with overlap
     ethr =  1.77E-06,  avg # of iterations =  2.0

     total cpu time spent up to now is       13.8 secs

     total energy              =     -22.62672083 Ry
     Harris-Foulkes estimate   =     -22.62672163 Ry
     estimated scf accuracy    <       0.00000171 Ry

     iteration #  5     ecut=    60.00 Ry     beta=0.70
     Davidson diagonalization with overlap
     ethr =  2.14E-08,  avg # of iterations =  3.0

     total cpu time spent up to now is       14.7 secs

     total energy              =     -22.62672142 Ry
     Harris-Foulkes estimate   =     -22.62672145 Ry
     estimated scf accuracy    <       0.00000013 Ry

     iteration #  6     ecut=    60.00 Ry     beta=0.70
     Davidson diagonalization with overlap
     ethr =  1.69E-09,  avg # of iterations =  1.4

     total cpu time spent up to now is       15.2 secs

     total energy              =     -22.62672141 Ry
     Harris-Foulkes estimate   =     -22.62672142 Ry
     estimated scf accuracy    <       0.00000003 Ry

     iteration #  7     ecut=    60.00 Ry     beta=0.70
     Davidson diagonalization with overlap
     ethr =  3.71E-10,  avg # of iterations =  2.7

     total cpu time spent up to now is       15.9 secs

     total energy              =     -22.62672141 Ry
     Harris-Foulkes estimate   =     -22.62672141 Ry
     estimated scf accuracy    <          1.3E-10 Ry

     iteration #  8     ecut=    60.00 Ry     beta=0.70
     Davidson diagonalization with overlap
     ethr =  1.58E-12,  avg # of iterations =  2.0

     total cpu time spent up to now is       16.5 secs

     total energy              =     -22.62672141 Ry
     Harris-Foulkes estimate   =     -22.62672141 Ry
     estimated scf accuracy    <          1.0E-13 Ry

     iteration #  9     ecut=    60.00 Ry     beta=0.70
     Davidson diagonalization with overlap
     ethr =  1.00E-13,  avg # of iterations =  1.2

     total cpu time spent up to now is       17.0 secs

     total energy              =     -22.62672141 Ry
     Harris-Foulkes estimate   =     -22.62672141 Ry
     estimated scf accuracy    <          6.7E-13 Ry

     iteration # 10     ecut=    60.00 Ry     beta=0.70
     Davidson diagonalization with overlap
     ethr =  1.00E-13,  avg # of iterations =  1.0

     total cpu time spent up to now is       17.4 secs

     End of self-consistent calculation

          k = 0.0000 0.0000 0.0000 (   609 PWs)   bands (ev):

    -7.7699  12.9063  12.9063  12.9063  18.5444  18.5444  18.5444  25.3046

          k =-0.2459 0.2459-0.2459 (   595 PWs)   bands (ev):

    -6.1206   6.6422  11.2746  11.2746  20.6390  20.6390  20.7918  26.9199

          k = 0.4917-0.4917 0.4917 (   580 PWs)   bands (ev):

    -2.3161   0.2301  10.2631  10.2631  21.3276  21.3844  21.3844  28.4451

          k = 0.2459-0.2459 0.2459 (   595 PWs)   bands (ev):

    -6.1206   6.6422  11.2746  11.2746  20.6390  20.6390  20.7918  26.9199

          k = 0.2459 0.2459 0.2459 (   595 PWs)   bands (ev):

    -6.1206   6.6422  11.2746  11.2746  20.6390  20.6390  20.7918  26.9199

          k = 0.0000 0.4917-0.0000 (   592 PWs)   bands (ev):

    -5.5718   8.4922   9.0525   9.0525  17.4954  23.1636  24.1750  24.1750

          k = 0.7376-0.2459 0.7376 (   602 PWs)   bands (ev):

    -2.0095   2.5818   6.5257   8.3217  19.1484  24.2119  25.4001  25.7902

          k = 0.4917 0.0000 0.4917 (   602 PWs)   bands (ev):

    -3.4858   4.5333   5.7625  10.0747  20.8448  22.7408  24.9133  26.3244

          k =-0.4917-0.4917-0.4917 (   580 PWs)   bands (ev):

    -2.3161   0.2301  10.2631  10.2631  21.3276  21.3844  21.3844  28.4451

          k =-0.7376-0.2459-0.7376 (   602 PWs)   bands (ev):

    -2.0095   2.5818   6.5257   8.3217  19.1484  24.2119  25.4001  25.7902

          k =-0.0000-0.9835 0.0000 (   588 PWs)   bands (ev):

     0.5906   0.5906   6.9773   6.9773  17.9275  17.9275  29.0685  29.0685

          k =-0.2459-0.7376-0.2459 (   602 PWs)   bands (ev):

    -2.0095   2.5818   6.5257   8.3217  19.1484  24.2119  25.4001  25.7902

          k =-0.2459-0.2459-0.2459 (   595 PWs)   bands (ev):

    -6.1206   6.6422  11.2746  11.2746  20.6390  20.6390  20.7918  26.9199

          k =-0.4917-0.0000-0.4917 (   602 PWs)   bands (ev):

    -3.4858   4.5333   5.7625  10.0747  20.8448  22.7408  24.9133  26.3244

          k = 0.2459-0.7376 0.2459 (   602 PWs)   bands (ev):

    -2.0095   2.5818   6.5257   8.3217  19.1484  24.2119  25.4001  25.7902

          k =-0.0000-0.4917 0.0000 (   592 PWs)   bands (ev):

    -5.5718   8.4922   9.0525   9.0525  17.4954  23.1636  24.1750  24.1750

          k =-0.2459-0.2459 0.2459 (   595 PWs)   bands (ev):

    -6.1206   6.6422  11.2746  11.2746  20.6390  20.6390  20.7918  26.9199

          k =-0.4917-0.0000-0.0000 (   592 PWs)   bands (ev):

    -5.5718   8.4922   9.0525   9.0525  17.4954  23.1636  24.1750  24.1750

          k = 0.2459-0.7376 0.7376 (   602 PWs)   bands (ev):

    -2.0095   2.5818   6.5257   8.3217  19.1484  24.2119  25.4001  25.7902

          k =-0.0000-0.4917 0.4917 (   602 PWs)   bands (ev):

    -3.4858   4.5333   5.7625  10.0747  20.8448  22.7408  24.9133  26.3244

          k = 0.0000-0.0000 0.4917 (   592 PWs)   bands (ev):

    -5.5718   8.4922   9.0525   9.0525  17.4954  23.1636  24.1750  24.1750

          k =-0.2459 0.2459 0.2459 (   595 PWs)   bands (ev):

    -6.1206   6.6422  11.2746  11.2746  20.6390  20.6390  20.7918  26.9199

          k = 0.4917-0.4917 0.9835 (   602 PWs)   bands (ev):

    -3.4858   4.5333   5.7625  10.0747  20.8448  22.7408  24.9133  26.3244

          k = 0.2459-0.2459 0.7376 (   602 PWs)   bands (ev):

    -2.0095   2.5818   6.5257   8.3217  19.1484  24.2119  25.4001  25.7902

          k =-0.7376-0.7376-0.2459 (   602 PWs)   bands (ev):

    -2.0095   2.5818   6.5257   8.3217  19.1484  24.2119  25.4001  25.7902

          k =-0.9835-0.4917-0.4917 (   602 PWs)   bands (ev):

    -3.4858   4.5333   5.7625  10.0747  20.8448  22.7408  24.9133  26.3244

          k =-0.2459-1.2294 0.2459 (   602 PWs)   bands (ev):

    -2.0095   2.5818   6.5257   8.3217  19.1484  24.2119  25.4001  25.7902

          k =-0.4917-0.9835 0.0000 (   604 PWs)   bands (ev):

     1.2823   1.2823   5.1439   5.1439  23.6070  23.6070  24.7697  24.7697

          k =-0.4917-0.4917 0.0000 (   602 PWs)   bands (ev):

    -3.4858   4.5333   5.7625  10.0747  20.8448  22.7408  24.9133  26.3244

          k =-0.7376-0.2459-0.2459 (   602 PWs)   bands (ev):

    -2.0095   2.5818   6.5257   8.3217  19.1484  24.2119  25.4001  25.7902

          k =-0.0000-0.9835 0.4917 (   604 PWs)   bands (ev):

     1.2823   1.2823   5.1439   5.1439  23.6070  23.6070  24.7697  24.7697

          k =-0.2459-0.7376 0.2459 (   602 PWs)   bands (ev):

    -2.0095   2.5818   6.5257   8.3217  19.1484  24.2119  25.4001  25.7902

          k = 0.4917 0.4917-0.4917 (   580 PWs)   bands (ev):

    -2.3161   0.2301  10.2631  10.2631  21.3276  21.3844  21.3844  28.4451

          k = 0.2459 0.7376-0.7376 (   602 PWs)   bands (ev):

    -2.0095   2.5818   6.5257   8.3217  19.1484  24.2119  25.4001  25.7902

          k = 0.9835 0.0000 0.0000 (   588 PWs)   bands (ev):

     0.5906   0.5906   6.9773   6.9773  17.9275  17.9275  29.0685  29.0685

          k = 0.7376 0.2459-0.2459 (   602 PWs)   bands (ev):

    -2.0095   2.5818   6.5257   8.3217  19.1484  24.2119  25.4001  25.7902

          k = 0.7376 0.7376-0.2459 (   602 PWs)   bands (ev):

    -2.0095   2.5818   6.5257   8.3217  19.1484  24.2119  25.4001  25.7902

          k = 0.4917 0.9835-0.4917 (   602 PWs)   bands (ev):

    -3.4858   4.5333   5.7625  10.0747  20.8448  22.7408  24.9133  26.3244

          k = 1.2294 0.2459 0.2459 (   602 PWs)   bands (ev):

    -2.0095   2.5818   6.5257   8.3217  19.1484  24.2119  25.4001  25.7902

          k = 0.9835 0.4917-0.0000 (   604 PWs)   bands (ev):

     1.2823   1.2823   5.1439   5.1439  23.6070  23.6070  24.7697  24.7697

          k =-0.0000 0.0000-0.9835 (   588 PWs)   bands (ev):

     0.5906   0.5906   6.9773   6.9773  17.9275  17.9275  29.0685  29.0685

          k =-0.2459 0.2459-1.2294 (   602 PWs)   bands (ev):

    -2.0095   2.5818   6.5257   8.3217  19.1484  24.2119  25.4001  25.7902

          k = 0.4917-0.4917-0.4917 (   580 PWs)   bands (ev):

    -2.3161   0.2301  10.2631  10.2631  21.3276  21.3844  21.3844  28.4451

          k = 0.2459-0.2459-0.7376 (   602 PWs)   bands (ev):

    -2.0095   2.5818   6.5257   8.3217  19.1484  24.2119  25.4001  25.7902

          k = 0.2459 0.2459-0.7376 (   602 PWs)   bands (ev):

    -2.0095   2.5818   6.5257   8.3217  19.1484  24.2119  25.4001  25.7902

          k = 0.0000 0.4917-0.9835 (   604 PWs)   bands (ev):

     1.2823   1.2823   5.1439   5.1439  23.6070  23.6070  24.7697  24.7697

          k = 0.7376-0.2459-0.2459 (   602 PWs)   bands (ev):

    -2.0095   2.5818   6.5257   8.3217  19.1484  24.2119  25.4001  25.7902

          k = 0.4917 0.0000-0.4917 (   602 PWs)   bands (ev):

    -3.4858   4.5333   5.7625  10.0747  20.8448  22.7408  24.9133  26.3244

          k = 0.2459 0.2459-0.2459 (   595 PWs)   bands (ev):

    -6.1206   6.6422  11.2746  11.2746  20.6390  20.6390  20.7918  26.9199

          k = 0.0000 0.4917-0.4917 (   602 PWs)   bands (ev):

    -3.4858   4.5333   5.7625  10.0747  20.8448  22.7408  24.9133  26.3244

          k = 0.7376-0.2459 0.2459 (   602 PWs)   bands (ev):

    -2.0095   2.5818   6.5257   8.3217  19.1484  24.2119  25.4001  25.7902

          k = 0.4917 0.0000 0.0000 (   592 PWs)   bands (ev):

    -5.5718   8.4922   9.0525   9.0525  17.4954  23.1636  24.1750  24.1750

          k = 0.4917 0.4917-0.0000 (   602 PWs)   bands (ev):

    -3.4858   4.5333   5.7625  10.0747  20.8448  22.7408  24.9133  26.3244

          k = 0.2459 0.7376-0.2459 (   602 PWs)   bands (ev):

    -2.0095   2.5818   6.5257   8.3217  19.1484  24.2119  25.4001  25.7902

          k = 0.9835 0.0000 0.4917 (   604 PWs)   bands (ev):

     1.2823   1.2823   5.1439   5.1439  23.6070  23.6070  24.7697  24.7697

          k = 0.7376 0.2459 0.2459 (   602 PWs)   bands (ev):

    -2.0095   2.5818   6.5257   8.3217  19.1484  24.2119  25.4001  25.7902

          k =-0.2459-0.2459-0.7376 (   602 PWs)   bands (ev):

    -2.0095   2.5818   6.5257   8.3217  19.1484  24.2119  25.4001  25.7902

          k =-0.4917 0.0000-0.9835 (   604 PWs)   bands (ev):

     1.2823   1.2823   5.1439   5.1439  23.6070  23.6070  24.7697  24.7697

          k = 0.2459-0.7376-0.2459 (   602 PWs)   bands (ev):

    -2.0095   2.5818   6.5257   8.3217  19.1484  24.2119  25.4001  25.7902

          k =-0.0000-0.4917-0.4917 (   602 PWs)   bands (ev):

    -3.4858   4.5333   5.7625  10.0747  20.8448  22.7408  24.9133  26.3244

          k =-0.0000 0.0000-0.4917 (   592 PWs)   bands (ev):

    -5.5718   8.4922   9.0525   9.0525  17.4954  23.1636  24.1750  24.1750

          k =-0.2459 0.2459-0.7376 (   602 PWs)   bands (ev):

    -2.0095   2.5818   6.5257   8.3217  19.1484  24.2119  25.4001  25.7902

          k = 0.4917-0.4917 0.0000 (   602 PWs)   bands (ev):

    -3.4858   4.5333   5.7625  10.0747  20.8448  22.7408  24.9133  26.3244

          k = 0.2459-0.2459-0.2459 (   595 PWs)   bands (ev):

    -6.1206   6.6422  11.2746  11.2746  20.6390  20.6390  20.7918  26.9199

     highest occupied, lowest unoccupied level (ev):    12.9063   17.4954

!    total energy              =     -22.62672141 Ry
     Harris-Foulkes estimate   =     -22.62672141 Ry
     estimated scf accuracy    <          4.5E-16 Ry

     The total energy is the sum of the following terms:

     one-electron contribution =       7.45608358 Ry
     hartree contribution      =       2.06827688 Ry
     xc contribution           =      -6.93924967 Ry
     ewald contribution        =     -25.21183221 Ry

     convergence has been achieved in  10 iterations

     Forces acting on atoms (cartesian axes, Ry/au):

     atom    1 type  1   force =     0.00000000    0.00000000    0.00000000
     atom    2 type  1   force =    -0.00000000   -0.00000000   -0.00000000

     Total force =     0.000000     Total SCF correction =     0.000000


     Computing stress (Cartesian axis) and pressure

          total   stress  (Ry/bohr**3)                   (kbar)     P= -119.15
  -0.00080999   0.00000000   0.00000000       -119.15      0.00      0.00
   0.00000000  -0.00080999  -0.00000000          0.00   -119.15     -0.00
   0.00000000  -0.00000000  -0.00080999          0.00     -0.00   -119.15


     number of scf cycles    =   2
     number of bfgs steps    =   1

     enthalpy old            =     -22.6270977241 Ry
     enthalpy new            =     -22.6267214121 Ry

     CASE: enthalpy_new > enthalpy_old

     new trust radius        =       0.0128822750 bohr
     new conv_thr            =            1.0E-15 Ry

     new unit-cell volume =     77.69228 a.u.^3 (    11.51281 Ang^3 )
     density =      3.46479 g/cm^3

CELL_PARAMETERS (alat=  6.72422507)
  -0.503663382   0.000000000   0.503663382
  -0.000000000   0.503663382   0.503663382
  -0.503663382   0.503663382   0.000000000

ATOMIC_POSITIONS (crystal)
C       -0.000000000  -0.000000000   0.000000000
C        0.250000000   0.250000000   0.250000000



     Writing output data file c.save
     NEW-OLD atomic charge density approx. for the potential
     extrapolated charge    7.77265, renormalised to    8.00000

     total cpu time spent up to now is       17.5 secs

     per-process dynamical memory:    23.5 Mb

     Self-consistent Calculation

     iteration #  1     ecut=    60.00 Ry     beta=0.70
     Davidson diagonalization with overlap
     ethr =  1.00E-06,  avg # of iterations =  3.8

     total cpu time spent up to now is       18.5 secs

     total energy              =     -22.62686588 Ry
     Harris-Foulkes estimate   =     -22.48507221 Ry
     estimated scf accuracy    <       0.00037979 Ry

     iteration #  2     ecut=    60.00 Ry     beta=0.70
     Davidson diagonalization with overlap
     ethr =  4.75E-06,  avg # of iterations =  3.6

     total cpu time spent up to now is       19.5 secs

     total energy              =     -22.62765820 Ry
     Harris-Foulkes estimate   =     -22.62768002 Ry
     estimated scf accuracy    <       0.00009033 Ry

     iteration #  3     ecut=    60.00 Ry     beta=0.70
     Davidson diagonalization with overlap
     ethr =  1.13E-06,  avg # of iterations =  1.0

     total cpu time spent up to now is       19.9 secs

     total energy              =     -22.62764303 Ry
     Harris-Foulkes estimate   =     -22.62765968 Ry
     estimated scf accuracy    <       0.00003577 Ry

     iteration #  4     ecut=    60.00 Ry     beta=0.70
     Davidson diagonalization with overlap
     ethr =  4.47E-07,  avg # of iterations =  2.0

     total cpu time spent up to now is       20.5 secs

     total energy              =     -22.62764594 Ry
     Harris-Foulkes estimate   =     -22.62764604 Ry
     estimated scf accuracy    <       0.00000025 Ry

     iteration #  5     ecut=    60.00 Ry     beta=0.70
     Davidson diagonalization with overlap
     ethr =  3.18E-09,  avg # of iterations =  3.2

     total cpu time spent up to now is       21.4 secs

     total energy              =     -22.62764606 Ry
     Harris-Foulkes estimate   =     -22.62764608 Ry
     estimated scf accuracy    <       0.00000004 Ry

     iteration #  6     ecut=    60.00 Ry     beta=0.70
     Davidson diagonalization with overlap
     ethr =  5.26E-10,  avg # of iterations =  2.1

     total cpu time spent up to now is       22.0 secs

     total energy              =     -22.62764607 Ry
     Harris-Foulkes estimate   =     -22.62764607 Ry
     estimated scf accuracy    <          3.0E-09 Ry

     iteration #  7     ecut=    60.00 Ry     beta=0.70
     Davidson diagonalization with overlap
     ethr =  3.74E-11,  avg # of iterations =  2.7

     total cpu time spent up to now is       22.8 secs

     total energy              =     -22.62764607 Ry
     Harris-Foulkes estimate   =     -22.62764607 Ry
     estimated scf accuracy    <          2.0E-11 Ry

     iteration #  8     ecut=    60.00 Ry     beta=0.70
     Davidson diagonalization with overlap
     ethr =  2.50E-13,  avg # of iterations =  2.4

     total cpu time spent up to now is       23.5 secs

     total energy              =     -22.62764607 Ry
     Harris-Foulkes estimate   =     -22.62764607 Ry
     estimated scf accuracy    <          1.2E-13 Ry

     iteration #  9     ecut=    60.00 Ry     beta=0.70
     Davidson diagonalization with overlap
     ethr =  1.00E-13,  avg # of iterations =  1.0

     total cpu time spent up to now is       23.9 secs

     total energy              =     -22.62764607 Ry
     Harris-Foulkes estimate   =     -22.62764607 Ry
     estimated scf accuracy    <          4.1E-14 Ry

     iteration # 10     ecut=    60.00 Ry     beta=0.70
     Davidson diagonalization with overlap
     ethr =  1.00E-13,  avg # of iterations =  1.0

     total cpu time spent up to now is       24.3 secs

     End of self-consistent calculation

          k = 0.0000 0.0000 0.0000 (   609 PWs)   bands (ev):

    -7.6381  13.3978  13.3978  13.3978  19.1183  19.1183  19.1183  26.4403

          k =-0.2482 0.2482-0.2482 (   595 PWs)   bands (ev):

    -5.9554   7.0091  11.7194  11.7194  21.2666  21.2666  21.5515  27.8843

          k = 0.4964-0.4964 0.4964 (   580 PWs)   bands (ev):

    -2.0298   0.4275  10.6841  10.6841  22.0027  22.0027  22.2040  29.2215

          k = 0.2482-0.2482 0.2482 (   595 PWs)   bands (ev):

    -5.9554   7.0091  11.7194  11.7194  21.2666  21.2666  21.5515  27.8843

          k = 0.2482 0.2482 0.2482 (   595 PWs)   bands (ev):

    -5.9554   7.0091  11.7194  11.7194  21.2666  21.2666  21.5515  27.8843

          k = 0.0000 0.4964-0.0000 (   592 PWs)   bands (ev):

    -5.3963   8.9556   9.4320   9.4320  18.0650  23.8859  24.9187  24.9187

          k = 0.7445-0.2482 0.7445 (   602 PWs)   bands (ev):

    -1.7487   2.8839   6.8743   8.6855  19.7429  24.9538  26.1618  26.6281

          k = 0.4964 0.0000 0.4964 (   602 PWs)   bands (ev):

    -3.2625   4.8950   6.0678  10.4879  21.5004  23.4292  25.7046  27.2271

          k =-0.4964-0.4964-0.4964 (   580 PWs)   bands (ev):

    -2.0298   0.4275  10.6841  10.6841  22.0027  22.0027  22.2040  29.2215

          k =-0.7445-0.2482-0.7445 (   602 PWs)   bands (ev):

    -1.7487   2.8839   6.8743   8.6855  19.7429  24.9538  26.1618  26.6281

          k =-0.0000-0.9927 0.0000 (   588 PWs)   bands (ev):

     0.8964   0.8964   7.3054   7.3054  18.4931  18.4931  29.9768  29.9768

          k =-0.2482-0.7445-0.2482 (   602 PWs)   bands (ev):

    -1.7487   2.8839   6.8743   8.6855  19.7429  24.9538  26.1618  26.6281

          k =-0.2482-0.2482-0.2482 (   595 PWs)   bands (ev):

    -5.9554   7.0091  11.7194  11.7194  21.2666  21.2666  21.5515  27.8843

          k =-0.4964-0.0000-0.4964 (   602 PWs)   bands (ev):

    -3.2625   4.8950   6.0678  10.4879  21.5004  23.4292  25.7046  27.2271

          k = 0.2482-0.7445 0.2482 (   602 PWs)   bands (ev):

    -1.7487   2.8839   6.8743   8.6855  19.7429  24.9538  26.1618  26.6281

          k =-0.0000-0.4964 0.0000 (   592 PWs)   bands (ev):

    -5.3963   8.9556   9.4320   9.4320  18.0650  23.8859  24.9187  24.9187

          k =-0.2482-0.2482 0.2482 (   595 PWs)   bands (ev):

    -5.9554   7.0091  11.7194  11.7194  21.2666  21.2666  21.5515  27.8843

          k =-0.4964-0.0000-0.0000 (   592 PWs)   bands (ev):

    -5.3963   8.9556   9.4320   9.4320  18.0650  23.8859  24.9187  24.9187

          k = 0.2482-0.7445 0.7445 (   602 PWs)   bands (ev):

    -1.7487   2.8839   6.8743   8.6855  19.7429  24.9538  26.1618  26.6281

          k =-0.0000-0.4964 0.4964 (   602 PWs)   bands (ev):

    -3.2625   4.8950   6.0678  10.4879  21.5004  23.4292  25.7046  27.2271

          k = 0.0000-0.0000 0.4964 (   592 PWs)   bands (ev):

    -5.3963   8.9556   9.4320   9.4320  18.0650  23.8859  24.9187  24.9187

          k =-0.2482 0.2482 0.2482 (   595 PWs)   bands (ev):

    -5.9554   7.0091  11.7194  11.7194  21.2666  21.2666  21.5515  27.8843

          k = 0.4964-0.4964 0.9927 (   602 PWs)   bands (ev):

    -3.2625   4.8950   6.0678  10.4879  21.5004  23.4292  25.7046  27.2271

          k = 0.2482-0.2482 0.7445 (   602 PWs)   bands (ev):

    -1.7487   2.8839   6.8743   8.6855  19.7429  24.9538  26.1618  26.6281

          k =-0.7445-0.7445-0.2482 (   602 PWs)   bands (ev):

    -1.7487   2.8839   6.8743   8.6855  19.7429  24.9538  26.1618  26.6281

          k =-0.9927-0.4964-0.4964 (   602 PWs)   bands (ev):

    -3.2625   4.8950   6.0678  10.4879  21.5004  23.4292  25.7046  27.2271

          k =-0.2482-1.2409 0.2482 (   602 PWs)   bands (ev):

    -1.7487   2.8839   6.8743   8.6855  19.7429  24.9538  26.1618  26.6281

          k =-0.4964-0.9927 0.0000 (   604 PWs)   bands (ev):

     1.6296   1.6296   5.4057   5.4057  24.2373  24.2373  25.6247  25.6247

          k =-0.4964-0.4964 0.0000 (   602 PWs)   bands (ev):

    -3.2625   4.8950   6.0678  10.4879  21.5004  23.4292  25.7046  27.2271

          k =-0.7445-0.2482-0.2482 (   602 PWs)   bands (ev):

    -1.7487   2.8839   6.8743   8.6855  19.7429  24.9538  26.1618  26.6281

          k =-0.0000-0.9927 0.4964 (   604 PWs)   bands (ev):

     1.6296   1.6296   5.4057   5.4057  24.2373  24.2373  25.6247  25.6247

          k =-0.2482-0.7445 0.2482 (   602 PWs)   bands (ev):

    -1.7487   2.8839   6.8743   8.6855  19.7429  24.9538  26.1618  26.6281

          k = 0.4964 0.4964-0.4964 (   580 PWs)   bands (ev):

    -2.0298   0.4275  10.6841  10.6841  22.0027  22.0027  22.2040  29.2215

          k = 0.2482 0.7445-0.7445 (   602 PWs)   bands (ev):

    -1.7487   2.8839   6.8743   8.6855  19.7429  24.9538  26.1618  26.6281

          k = 0.9927 0.0000 0.0000 (   588 PWs)   bands (ev):

     0.8964   0.8964   7.3054   7.3054  18.4931  18.4931  29.9768  29.9768

          k = 0.7445 0.2482-0.2482 (   602 PWs)   bands (ev):

    -1.7487   2.8839   6.8743   8.6855  19.7429  24.9538  26.1618  26.6281

          k = 0.7445 0.7445-0.2482 (   602 PWs)   bands (ev):

    -1.7487   2.8839   6.8743   8.6855  19.7429  24.9538  26.1618  26.6281

          k = 0.4964 0.9927-0.4964 (   602 PWs)   bands (ev):

    -3.2625   4.8950   6.0678  10.4879  21.5004  23.4292  25.7046  27.2271

          k = 1.2409 0.2482 0.2482 (   602 PWs)   bands (ev):

    -1.7487   2.8839   6.8743   8.6855  19.7429  24.9538  26.1618  26.6281

          k = 0.9927 0.4964-0.0000 (   604 PWs)   bands (ev):

     1.6296   1.6296   5.4057   5.4057  24.2373  24.2373  25.6247  25.6247

          k =-0.0000 0.0000-0.9927 (   588 PWs)   bands (ev):

     0.8964   0.8964   7.3054   7.3054  18.4931  18.4931  29.9768  29.9768

          k =-0.2482 0.2482-1.2409 (   602 PWs)   bands (ev):

    -1.7487   2.8839   6.8743   8.6855  19.7429  24.9538  26.1618  26.6281

          k = 0.4964-0.4964-0.4964 (   580 PWs)   bands (ev):

    -2.0298   0.4275  10.6841  10.6841  22.0027  22.0027  22.2040  29.2215

          k = 0.2482-0.2482-0.7445 (   602 PWs)   bands (ev):

    -1.7487   2.8839   6.8743   8.6855  19.7429  24.9538  26.1618  26.6281

          k = 0.2482 0.2482-0.7445 (   602 PWs)   bands (ev):

    -1.7487   2.8839   6.8743   8.6855  19.7429  24.9538  26.1618  26.6281

          k = 0.0000 0.4964-0.9927 (   604 PWs)   bands (ev):

     1.6296   1.6296   5.4057   5.4057  24.2373  24.2373  25.6247  25.6247

          k = 0.7445-0.2482-0.2482 (   602 PWs)   bands (ev):

    -1.7487   2.8839   6.8743   8.6855  19.7429  24.9538  26.1618  26.6281

          k = 0.4964 0.0000-0.4964 (   602 PWs)   bands (ev):

    -3.2625   4.8950   6.0678  10.4879  21.5004  23.4292  25.7046  27.2271

          k = 0.2482 0.2482-0.2482 (   595 PWs)   bands (ev):

    -5.9554   7.0091  11.7194  11.7194  21.2666  21.2666  21.5515  27.8843

          k = 0.0000 0.4964-0.4964 (   602 PWs)   bands (ev):

    -3.2625   4.8950   6.0678  10.4879  21.5004  23.4292  25.7046  27.2271

          k = 0.7445-0.2482 0.2482 (   602 PWs)   bands (ev):

    -1.7487   2.8839   6.8743   8.6855  19.7429  24.9538  26.1618  26.6281

          k = 0.4964 0.0000 0.0000 (   592 PWs)   bands (ev):

    -5.3963   8.9556   9.4320   9.4320  18.0650  23.8859  24.9187  24.9187

          k = 0.4964 0.4964-0.0000 (   602 PWs)   bands (ev):

    -3.2625   4.8950   6.0678  10.4879  21.5004  23.4292  25.7046  27.2271

          k = 0.2482 0.7445-0.2482 (   602 PWs)   bands (ev):

    -1.7487   2.8839   6.8743   8.6855  19.7429  24.9538  26.1618  26.6281

          k = 0.9927 0.0000 0.4964 (   604 PWs)   bands (ev):

     1.6296   1.6296   5.4057   5.4057  24.2373  24.2373  25.6247  25.6247

          k = 0.7445 0.2482 0.2482 (   602 PWs)   bands (ev):

    -1.7487   2.8839   6.8743   8.6855  19.7429  24.9538  26.1618  26.6281

          k =-0.2482-0.2482-0.7445 (   602 PWs)   bands (ev):

    -1.7487   2.8839   6.8743   8.6855  19.7429  24.9538  26.1618  26.6281

          k =-0.4964 0.0000-0.9927 (   604 PWs)   bands (ev):

     1.6296   1.6296   5.4057   5.4057  24.2373  24.2373  25.6247  25.6247

          k = 0.2482-0.7445-0.2482 (   602 PWs)   bands (ev):

    -1.7487   2.8839   6.8743   8.6855  19.7429  24.9538  26.1618  26.6281

          k =-0.0000-0.4964-0.4964 (   602 PWs)   bands (ev):

    -3.2625   4.8950   6.0678  10.4879  21.5004  23.4292  25.7046  27.2271

          k =-0.0000 0.0000-0.4964 (   592 PWs)   bands (ev):

    -5.3963   8.9556   9.4320   9.4320  18.0650  23.8859  24.9187  24.9187

          k =-0.2482 0.2482-0.7445 (   602 PWs)   bands (ev):

    -1.7487   2.8839   6.8743   8.6855  19.7429  24.9538  26.1618  26.6281

          k = 0.4964-0.4964 0.0000 (   602 PWs)   bands (ev):

    -3.2625   4.8950   6.0678  10.4879  21.5004  23.4292  25.7046  27.2271

          k = 0.2482-0.2482-0.2482 (   595 PWs)   bands (ev):

    -5.9554   7.0091  11.7194  11.7194  21.2666  21.2666  21.5515  27.8843

     highest occupied, lowest unoccupied level (ev):    13.3978   18.0650

!    total energy              =     -22.62764607 Ry
     Harris-Foulkes estimate   =     -22.62764607 Ry
     estimated scf accuracy    <          6.1E-16 Ry

     The total energy is the sum of the following terms:

     one-electron contribution =       7.76431718 Ry
     hartree contribution      =       2.03958332 Ry
     xc contribution           =      -6.98270266 Ry
     ewald contribution        =     -25.44884390 Ry

     convergence has been achieved in  10 iterations

     Forces acting on atoms (cartesian axes, Ry/au):

     atom    1 type  1   force =    -0.00000000    0.00000000    0.00000000
     atom    2 type  1   force =     0.00000000   -0.00000000   -0.00000000

     Total force =     0.000000     Total SCF correction =     0.000000
     SCF correction compared to forces is large: reduce conv_thr to get better values


     Computing stress (Cartesian axis) and pressure

          total   stress  (Ry/bohr**3)                   (kbar)     P=   -1.36
  -0.00000924   0.00000000   0.00000000         -1.36      0.00      0.00
   0.00000000  -0.00000924  -0.00000000          0.00     -1.36     -0.00
   0.00000000  -0.00000000  -0.00000924          0.00     -0.00     -1.36


     number of scf cycles    =   3
     number of bfgs steps    =   1

     enthalpy old            =     -22.6270977241 Ry
     enthalpy new            =     -22.6276460665 Ry

     CASE: enthalpy_new < enthalpy_old

     new trust radius        =       0.0001765295 bohr
     new conv_thr            =            1.0E-17 Ry

     new unit-cell volume =     77.66894 a.u.^3 (    11.50935 Ang^3 )
     density =      3.46583 g/cm^3

CELL_PARAMETERS (alat=  6.72422507)
  -0.503612946  -0.000000000   0.503612946
   0.000000000   0.503612946   0.503612946
  -0.503612946   0.503612946  -0.000000000

ATOMIC_POSITIONS (crystal)
C        0.000000000   0.000000000  -0.000000000
C        0.250000000   0.250000000   0.250000000



     Writing output data file c.save
     NEW-OLD atomic charge density approx. for the potential
     extrapolated charge    7.99760, renormalised to    8.00000

     total cpu time spent up to now is       24.4 secs

     per-process dynamical memory:    25.6 Mb

     Self-consistent Calculation

     iteration #  1     ecut=    60.00 Ry     beta=0.70
     Davidson diagonalization with overlap
     ethr =  1.00E-06,  avg # of iterations =  1.0

     Threshold (ethr) on eigenvalues was too large:
     Diagonalizing with lowered threshold

     Davidson diagonalization with overlap
     ethr =  5.36E-10,  avg # of iterations =  2.6

     total cpu time spent up to now is       25.4 secs

     total energy              =     -22.62764609 Ry
     Harris-Foulkes estimate   =     -22.62613996 Ry
     estimated scf accuracy    <       0.00000004 Ry

     iteration #  2     ecut=    60.00 Ry     beta=0.70
     Davidson diagonalization with overlap
     ethr =  4.90E-10,  avg # of iterations =  3.6

     total cpu time spent up to now is       26.4 secs

     total energy              =     -22.62764618 Ry
     Harris-Foulkes estimate   =     -22.62764618 Ry
     estimated scf accuracy    <       0.00000001 Ry

     iteration #  3     ecut=    60.00 Ry     beta=0.70
     Davidson diagonalization with overlap
     ethr =  1.37E-10,  avg # of iterations =  1.0

     total cpu time spent up to now is       26.8 secs

     total energy              =     -22.62764618 Ry
     Harris-Foulkes estimate   =     -22.62764618 Ry
     estimated scf accuracy    <          4.5E-09 Ry

     iteration #  4     ecut=    60.00 Ry     beta=0.70
     Davidson diagonalization with overlap
     ethr =  5.64E-11,  avg # of iterations =  2.0

     total cpu time spent up to now is       27.4 secs

     total energy              =     -22.62764618 Ry
     Harris-Foulkes estimate   =     -22.62764618 Ry
     estimated scf accuracy    <          3.8E-11 Ry

     iteration #  5     ecut=    60.00 Ry     beta=0.70
     Davidson diagonalization with overlap
     ethr =  4.75E-13,  avg # of iterations =  3.2

     total cpu time spent up to now is       28.3 secs

     total energy              =     -22.62764618 Ry
     Harris-Foulkes estimate   =     -22.62764618 Ry
     estimated scf accuracy    <          4.9E-12 Ry

     iteration #  6     ecut=    60.00 Ry     beta=0.70
     Davidson diagonalization with overlap
     ethr =  1.00E-13,  avg # of iterations =  1.3

     total cpu time spent up to now is       28.8 secs

     total energy              =     -22.62764618 Ry
     Harris-Foulkes estimate   =     -22.62764618 Ry
     estimated scf accuracy    <          5.1E-13 Ry

     iteration #  7     ecut=    60.00 Ry     beta=0.70
     Davidson diagonalization with overlap
     ethr =  1.00E-13,  avg # of iterations =  1.0

     total cpu time spent up to now is       29.2 secs

     total energy              =     -22.62764618 Ry
     Harris-Foulkes estimate   =     -22.62764618 Ry
     estimated scf accuracy    <          2.9E-15 Ry

     iteration #  8     ecut=    60.00 Ry     beta=0.70
     Davidson diagonalization with overlap
     ethr =  1.00E-13,  avg # of iterations =  1.0

     total cpu time spent up to now is       29.6 secs

     total energy              =     -22.62764618 Ry
     Harris-Foulkes estimate   =     -22.62764618 Ry
     estimated scf accuracy    <          1.2E-16 Ry

     iteration #  9     ecut=    60.00 Ry     beta=0.70
     Davidson diagonalization with overlap
     ethr =  1.00E-13,  avg # of iterations =  1.0

     total cpu time spent up to now is       30.0 secs

     total energy              =     -22.62764618 Ry
     Harris-Foulkes estimate   =     -22.62764618 Ry
     estimated scf accuracy    <          3.0E-17 Ry

     iteration # 10     ecut=    60.00 Ry     beta=0.70
     Davidson diagonalization with overlap
     ethr =  1.00E-13,  avg # of iterations =  1.0

     total cpu time spent up to now is       30.4 secs

     End of self-consistent calculation

          k = 0.0000 0.0000 0.0000 (   609 PWs)   bands (ev):

    -7.6366  13.4031  13.4031  13.4031  19.1245  19.1245  19.1245  26.4526

          k =-0.2482 0.2482-0.2482 (   595 PWs)   bands (ev):

    -5.9536   7.0131  11.7242  11.7242  21.2734  21.2734  21.5597  27.8947

          k = 0.4964-0.4964 0.4964 (   580 PWs)   bands (ev):

    -2.0267   0.4296  10.6886  10.6886  22.0094  22.0094  22.2135  29.2299

          k = 0.2482-0.2482 0.2482 (   595 PWs)   bands (ev):

    -5.9536   7.0131  11.7242  11.7242  21.2734  21.2734  21.5597  27.8947

          k = 0.2482 0.2482 0.2482 (   595 PWs)   bands (ev):

    -5.9536   7.0131  11.7242  11.7242  21.2734  21.2734  21.5597  27.8947

          k =-0.0000 0.4964 0.0000 (   592 PWs)   bands (ev):

    -5.3944   8.9606   9.4361   9.4361  18.0711  23.8937  24.9267  24.9267

          k = 0.7446-0.2482 0.7446 (   602 PWs)   bands (ev):

    -1.7459   2.8872   6.8781   8.6895  19.7493  24.9618  26.1700  26.6372

          k = 0.4964-0.0000 0.4964 (   602 PWs)   bands (ev):

    -3.2601   4.8989   6.0711  10.4924  21.5074  23.4366  25.7132  27.2369

          k =-0.4964-0.4964-0.4964 (   580 PWs)   bands (ev):

    -2.0267   0.4296  10.6886  10.6886  22.0094  22.0094  22.2135  29.2299

          k =-0.7446-0.2482-0.7446 (   602 PWs)   bands (ev):

    -1.7459   2.8872   6.8781   8.6895  19.7493  24.9618  26.1700  26.6372

          k = 0.0000-0.9928-0.0000 (   588 PWs)   bands (ev):

     0.8997   0.8997   7.3089   7.3089  18.4992  18.4992  29.9866  29.9866

          k =-0.2482-0.7446-0.2482 (   602 PWs)   bands (ev):

    -1.7459   2.8872   6.8781   8.6895  19.7493  24.9618  26.1700  26.6372

          k =-0.2482-0.2482-0.2482 (   595 PWs)   bands (ev):

    -5.9536   7.0131  11.7242  11.7242  21.2734  21.2734  21.5597  27.8947

          k =-0.4964 0.0000-0.4964 (   602 PWs)   bands (ev):

    -3.2601   4.8989   6.0711  10.4924  21.5074  23.4366  25.7132  27.2369

          k = 0.2482-0.7446 0.2482 (   602 PWs)   bands (ev):

    -1.7459   2.8872   6.8781   8.6895  19.7493  24.9618  26.1700  26.6372

          k = 0.0000-0.4964-0.0000 (   592 PWs)   bands (ev):

    -5.3944   8.9606   9.4361   9.4361  18.0711  23.8937  24.9267  24.9267

          k =-0.2482-0.2482 0.2482 (   595 PWs)   bands (ev):

    -5.9536   7.0131  11.7242  11.7242  21.2734  21.2734  21.5597  27.8947

          k =-0.4964 0.0000 0.0000 (   592 PWs)   bands (ev):

    -5.3944   8.9606   9.4361   9.4361  18.0711  23.8937  24.9267  24.9267

          k = 0.2482-0.7446 0.7446 (   602 PWs)   bands (ev):

    -1.7459   2.8872   6.8781   8.6895  19.7493  24.9618  26.1700  26.6372

          k = 0.0000-0.4964 0.4964 (   602 PWs)   bands (ev):

    -3.2601   4.8989   6.0711  10.4924  21.5074  23.4366  25.7132  27.2369

          k =-0.0000 0.0000 0.4964 (   592 PWs)   bands (ev):

    -5.3944   8.9606   9.4361   9.4361  18.0711  23.8937  24.9267  24.9267

          k =-0.2482 0.2482 0.2482 (   595 PWs)   bands (ev):

    -5.9536   7.0131  11.7242  11.7242  21.2734  21.2734  21.5597  27.8947

          k = 0.4964-0.4964 0.9928 (   602 PWs)   bands (ev):

    -3.2601   4.8989   6.0711  10.4924  21.5074  23.4366  25.7132  27.2369

          k = 0.2482-0.2482 0.7446 (   602 PWs)   bands (ev):

    -1.7459   2.8872   6.8781   8.6895  19.7493  24.9618  26.1700  26.6372

          k =-0.7446-0.7446-0.2482 (   602 PWs)   bands (ev):

    -1.7459   2.8872   6.8781   8.6895  19.7493  24.9618  26.1700  26.6372

          k =-0.9928-0.4964-0.4964 (   602 PWs)   bands (ev):

    -3.2601   4.8989   6.0711  10.4924  21.5074  23.4366  25.7132  27.2369

          k =-0.2482-1.2410 0.2482 (   602 PWs)   bands (ev):

    -1.7459   2.8872   6.8781   8.6895  19.7493  24.9618  26.1700  26.6372

          k =-0.4964-0.9928-0.0000 (   604 PWs)   bands (ev):

     1.6334   1.6334   5.4085   5.4085  24.2441  24.2441  25.6340  25.6340

          k =-0.4964-0.4964-0.0000 (   602 PWs)   bands (ev):

    -3.2601   4.8989   6.0711  10.4924  21.5074  23.4366  25.7132  27.2369

          k =-0.7446-0.2482-0.2482 (   602 PWs)   bands (ev):

    -1.7459   2.8872   6.8781   8.6895  19.7493  24.9618  26.1700  26.6372

          k = 0.0000-0.9928 0.4964 (   604 PWs)   bands (ev):

     1.6334   1.6334   5.4085   5.4085  24.2441  24.2441  25.6340  25.6340

          k =-0.2482-0.7446 0.2482 (   602 PWs)   bands (ev):

    -1.7459   2.8872   6.8781   8.6895  19.7493  24.9618  26.1700  26.6372

          k = 0.4964 0.4964-0.4964 (   580 PWs)   bands (ev):

    -2.0267   0.4296  10.6886  10.6886  22.0094  22.0094  22.2135  29.2299

          k = 0.2482 0.7446-0.7446 (   602 PWs)   bands (ev):

    -1.7459   2.8872   6.8781   8.6895  19.7493  24.9618  26.1700  26.6372

          k = 0.9928-0.0000-0.0000 (   588 PWs)   bands (ev):

     0.8997   0.8997   7.3089   7.3089  18.4992  18.4992  29.9866  29.9866

          k = 0.7446 0.2482-0.2482 (   602 PWs)   bands (ev):

    -1.7459   2.8872   6.8781   8.6895  19.7493  24.9618  26.1700  26.6372

          k = 0.7446 0.7446-0.2482 (   602 PWs)   bands (ev):

    -1.7459   2.8872   6.8781   8.6895  19.7493  24.9618  26.1700  26.6372

          k = 0.4964 0.9928-0.4964 (   602 PWs)   bands (ev):

    -3.2601   4.8989   6.0711  10.4924  21.5074  23.4366  25.7132  27.2369

          k = 1.2410 0.2482 0.2482 (   602 PWs)   bands (ev):

    -1.7459   2.8872   6.8781   8.6895  19.7493  24.9618  26.1700  26.6372

          k = 0.9928 0.4964-0.0000 (   604 PWs)   bands (ev):

     1.6334   1.6334   5.4085   5.4085  24.2441  24.2441  25.6340  25.6340

          k = 0.0000-0.0000-0.9928 (   588 PWs)   bands (ev):

     0.8997   0.8997   7.3089   7.3089  18.4992  18.4992  29.9866  29.9866

          k =-0.2482 0.2482-1.2410 (   602 PWs)   bands (ev):

    -1.7459   2.8872   6.8781   8.6895  19.7493  24.9618  26.1700  26.6372

          k = 0.4964-0.4964-0.4964 (   580 PWs)   bands (ev):

    -2.0267   0.4296  10.6886  10.6886  22.0094  22.0094  22.2135  29.2299

          k = 0.2482-0.2482-0.7446 (   602 PWs)   bands (ev):

    -1.7459   2.8872   6.8781   8.6895  19.7493  24.9618  26.1700  26.6372

          k = 0.2482 0.2482-0.7446 (   602 PWs)   bands (ev):

    -1.7459   2.8872   6.8781   8.6895  19.7493  24.9618  26.1700  26.6372

          k = 0.0000 0.4964-0.9928 (   604 PWs)   bands (ev):

     1.6334   1.6334   5.4085   5.4085  24.2441  24.2441  25.6340  25.6340

          k = 0.7446-0.2482-0.2482 (   602 PWs)   bands (ev):

    -1.7459   2.8872   6.8781   8.6895  19.7493  24.9618  26.1700  26.6372

          k = 0.4964-0.0000-0.4964 (   602 PWs)   bands (ev):

    -3.2601   4.8989   6.0711  10.4924  21.5074  23.4366  25.7132  27.2369

          k = 0.2482 0.2482-0.2482 (   595 PWs)   bands (ev):

    -5.9536   7.0131  11.7242  11.7242  21.2734  21.2734  21.5597  27.8947

          k =-0.0000 0.4964-0.4964 (   602 PWs)   bands (ev):

    -3.2601   4.8989   6.0711  10.4924  21.5074  23.4366  25.7132  27.2369

          k = 0.7446-0.2482 0.2482 (   602 PWs)   bands (ev):

    -1.7459   2.8872   6.8781   8.6895  19.7493  24.9618  26.1700  26.6372

          k = 0.4964-0.0000-0.0000 (   592 PWs)   bands (ev):

    -5.3944   8.9606   9.4361   9.4361  18.0711  23.8937  24.9267  24.9267

          k = 0.4964 0.4964 0.0000 (   602 PWs)   bands (ev):

    -3.2601   4.8989   6.0711  10.4924  21.5074  23.4366  25.7132  27.2369

          k = 0.2482 0.7446-0.2482 (   602 PWs)   bands (ev):

    -1.7459   2.8872   6.8781   8.6895  19.7493  24.9618  26.1700  26.6372

          k = 0.9928-0.0000 0.4964 (   604 PWs)   bands (ev):

     1.6334   1.6334   5.4085   5.4085  24.2441  24.2441  25.6340  25.6340

          k = 0.7446 0.2482 0.2482 (   602 PWs)   bands (ev):

    -1.7459   2.8872   6.8781   8.6895  19.7493  24.9618  26.1700  26.6372

          k =-0.2482-0.2482-0.7446 (   602 PWs)   bands (ev):

    -1.7459   2.8872   6.8781   8.6895  19.7493  24.9618  26.1700  26.6372

          k =-0.4964-0.0000-0.9928 (   604 PWs)   bands (ev):

     1.6334   1.6334   5.4085   5.4085  24.2441  24.2441  25.6340  25.6340

          k = 0.2482-0.7446-0.2482 (   602 PWs)   bands (ev):

    -1.7459   2.8872   6.8781   8.6895  19.7493  24.9618  26.1700  26.6372

          k = 0.0000-0.4964-0.4964 (   602 PWs)   bands (ev):

    -3.2601   4.8989   6.0711  10.4924  21.5074  23.4366  25.7132  27.2369

          k = 0.0000-0.0000-0.4964 (   592 PWs)   bands (ev):

    -5.3944   8.9606   9.4361   9.4361  18.0711  23.8937  24.9267  24.9267

          k =-0.2482 0.2482-0.7446 (   602 PWs)   bands (ev):

    -1.7459   2.8872   6.8781   8.6895  19.7493  24.9618  26.1700  26.6372

          k = 0.4964-0.4964-0.0000 (   602 PWs)   bands (ev):

    -3.2601   4.8989   6.0711  10.4924  21.5074  23.4366  25.7132  27.2369

          k = 0.2482-0.2482-0.2482 (   595 PWs)   bands (ev):

    -5.9536   7.0131  11.7242  11.7242  21.2734  21.2734  21.5597  27.8947

     highest occupied, lowest unoccupied level (ev):    13.4031   18.0711

!    total energy              =     -22.62764618 Ry
     Harris-Foulkes estimate   =     -22.62764618 Ry
     estimated scf accuracy    <          1.7E-18 Ry

     The total energy is the sum of the following terms:

     one-electron contribution =       7.76763946 Ry
     hartree contribution      =       2.03927832 Ry
     xc contribution           =      -6.98317140 Ry
     ewald contribution        =     -25.45139255 Ry

     convergence has been achieved in  10 iterations

     Forces acting on atoms (cartesian axes, Ry/au):

     atom    1 type  1   force =     0.00000000   -0.00000000   -0.00000000
     atom    2 type  1   force =    -0.00000000    0.00000000    0.00000000

     Total force =     0.000000     Total SCF correction =     0.000000


     Computing stress (Cartesian axis) and pressure

          total   stress  (Ry/bohr**3)                   (kbar)     P=   -0.04
  -0.00000024  -0.00000000  -0.00000000         -0.04     -0.00     -0.00
  -0.00000000  -0.00000024   0.00000000         -0.00     -0.04      0.00
  -0.00000000   0.00000000  -0.00000024         -0.00      0.00     -0.04


     bfgs converged in   4 scf cycles and   2 bfgs steps
     (criteria: energy <  1.0E-04 Ry, force <  1.0E-03Ry/Bohr, cell <  5.0E-01kbar)

     End of BFGS Geometry Optimization

     Final enthalpy =     -22.6276461772 Ry
Begin final coordinates
     new unit-cell volume =     77.66894 a.u.^3 (    11.50935 Ang^3 )
     density =      3.46583 g/cm^3

CELL_PARAMETERS (alat=  6.72422507)
  -0.503612946  -0.000000000   0.503612946
   0.000000000   0.503612946   0.503612946
  -0.503612946   0.503612946  -0.000000000

ATOMIC_POSITIONS (crystal)
C        0.000000000   0.000000000  -0.000000000
C        0.250000000   0.250000000   0.250000000
End final coordinates



     A final scf calculation at the relaxed structure.
     The G-vectors are recalculated for the final unit cell
     Results may differ from those at the preceding step.
 
     Parallelization info
     --------------------
     sticks:   dense  smooth     PW     G-vecs:    dense   smooth      PW
     Min           9       9      3                  122      122      23
     Max          10      10      4                  125      125      27
     Sum         379     379    121                 4909     4909     941
 


     bravais-lattice index     =            2
     lattice parameter (alat)  =       6.7242  a.u.
     unit-cell volume          =      77.6689 (a.u.)^3
     number of atoms/cell      =            2
     number of atomic types    =            1
     number of electrons       =         8.00
     number of Kohn-Sham states=            8
     kinetic-energy cutoff     =      60.0000  Ry
     charge density cutoff     =     240.0000  Ry
     convergence threshold     =      1.0E-17
     mixing beta               =       0.7000
     number of iterations used =            8  local-TF  mixing
     Exchange-correlation      = BLYP ( 1  3  1  3 0 0)

     celldm(1)=   6.724225  celldm(2)=   0.000000  celldm(3)=   0.000000
     celldm(4)=   0.000000  celldm(5)=   0.000000  celldm(6)=   0.000000

     crystal axes: (cart. coord. in units of alat)
               a(1) = (  -0.503613  -0.000000   0.503613 )  
               a(2) = (   0.000000   0.503613   0.503613 )  
               a(3) = (  -0.503613   0.503613  -0.000000 )  

     reciprocal axes: (cart. coord. in units 2 pi/alat)
               b(1) = ( -0.992826 -0.992826  0.992826 )  
               b(2) = (  0.992826  0.992826  0.992826 )  
               b(3) = ( -0.992826  0.992826 -0.992826 )  


     PseudoPot. # 1 for C  read from file:
     ../C_ONCV_PBE-1.0.upf
     MD5 check sum: 40f8c33130f0afa4272e9dcc1c4fb0df
     Pseudo is Norm-conserving, Zval =  4.0
     Generated using ONCVPSP code by D. R. Hamann
     Using radial grid of  602 points,  4 beta functions with: 
                l(1) =   0
                l(2) =   0
                l(3) =   1
                l(4) =   1

     atomic species   valence    mass     pseudopotential
        C              4.00    12.01100     C ( 1.00)

     No symmetry found



   Cartesian axes

     site n.     atom                  positions (alat units)
         1           C   tau(   1) = (  -0.0000000   0.0000000   0.0000000  )
         2           C   tau(   2) = (  -0.2518065   0.2518065   0.2518065  )

     number of k points=    64
                       cart. coord. in units 2pi/alat
        k(    1) = (   0.0000000   0.0000000   0.0000000), wk =   0.0312500
        k(    2) = (  -0.2482065   0.2482065  -0.2482065), wk =   0.0312500
        k(    3) = (   0.4964130  -0.4964130   0.4964130), wk =   0.0312500
        k(    4) = (   0.2482065  -0.2482065   0.2482065), wk =   0.0312500
        k(    5) = (   0.2482065   0.2482065   0.2482065), wk =   0.0312500
        k(    6) = (  -0.0000000   0.4964130   0.0000000), wk =   0.0312500
        k(    7) = (   0.7446195  -0.2482065   0.7446195), wk =   0.0312500
        k(    8) = (   0.4964130  -0.0000000   0.4964130), wk =   0.0312500
        k(    9) = (  -0.4964130  -0.4964130  -0.4964130), wk =   0.0312500
        k(   10) = (  -0.7446195  -0.2482065  -0.7446195), wk =   0.0312500
        k(   11) = (   0.0000000  -0.9928259  -0.0000000), wk =   0.0312500
        k(   12) = (  -0.2482065  -0.7446195  -0.2482065), wk =   0.0312500
        k(   13) = (  -0.2482065  -0.2482065  -0.2482065), wk =   0.0312500
        k(   14) = (  -0.4964130   0.0000000  -0.4964130), wk =   0.0312500
        k(   15) = (   0.2482065  -0.7446195   0.2482065), wk =   0.0312500
        k(   16) = (   0.0000000  -0.4964130  -0.0000000), wk =   0.0312500
        k(   17) = (  -0.2482065  -0.2482065   0.2482065), wk =   0.0312500
        k(   18) = (  -0.4964130   0.0000000   0.0000000), wk =   0.0312500
        k(   19) = (   0.2482065  -0.7446195   0.7446195), wk =   0.0312500
        k(   20) = (   0.0000000  -0.4964130   0.4964130), wk =   0.0312500
        k(   21) = (  -0.0000000   0.0000000   0.4964130), wk =   0.0312500
        k(   22) = (  -0.2482065   0.2482065   0.2482065), wk =   0.0312500
        k(   23) = (   0.4964130  -0.4964130   0.9928259), wk =   0.0312500
        k(   24) = (   0.2482065  -0.2482065   0.7446195), wk =   0.0312500
        k(   25) = (  -0.7446195  -0.7446195  -0.2482065), wk =   0.0312500
        k(   26) = (  -0.9928259  -0.4964130  -0.4964130), wk =   0.0312500
        k(   27) = (  -0.2482065  -1.2410324   0.2482065), wk =   0.0312500
        k(   28) = (  -0.4964130  -0.9928259  -0.0000000), wk =   0.0312500
        k(   29) = (  -0.4964130  -0.4964130  -0.0000000), wk =   0.0312500
        k(   30) = (  -0.7446195  -0.2482065  -0.2482065), wk =   0.0312500
        k(   31) = (   0.0000000  -0.9928259   0.4964130), wk =   0.0312500
        k(   32) = (  -0.2482065  -0.7446195   0.2482065), wk =   0.0312500
        k(   33) = (   0.4964130   0.4964130  -0.4964130), wk =   0.0312500
        k(   34) = (   0.2482065   0.7446195  -0.7446195), wk =   0.0312500
        k(   35) = (   0.9928259  -0.0000000  -0.0000000), wk =   0.0312500
        k(   36) = (   0.7446195   0.2482065  -0.2482065), wk =   0.0312500
        k(   37) = (   0.7446195   0.7446195  -0.2482065), wk =   0.0312500
        k(   38) = (   0.4964130   0.9928259  -0.4964130), wk =   0.0312500
        k(   39) = (   1.2410324   0.2482065   0.2482065), wk =   0.0312500
        k(   40) = (   0.9928259   0.4964130  -0.0000000), wk =   0.0312500
        k(   41) = (   0.0000000  -0.0000000  -0.9928259), wk =   0.0312500
        k(   42) = (  -0.2482065   0.2482065  -1.2410324), wk =   0.0312500
        k(   43) = (   0.4964130  -0.4964130  -0.4964130), wk =   0.0312500
        k(   44) = (   0.2482065  -0.2482065  -0.7446195), wk =   0.0312500
        k(   45) = (   0.2482065   0.2482065  -0.7446195), wk =   0.0312500
        k(   46) = (   0.0000000   0.4964130  -0.9928259), wk =   0.0312500
        k(   47) = (   0.7446195  -0.2482065  -0.2482065), wk =   0.0312500
        k(   48) = (   0.4964130  -0.0000000  -0.4964130), wk =   0.0312500
        k(   49) = (   0.2482065   0.2482065  -0.2482065), wk =   0.0312500
        k(   50) = (  -0.0000000   0.4964130  -0.4964130), wk =   0.0312500
        k(   51) = (   0.7446195  -0.2482065   0.2482065), wk =   0.0312500
        k(   52) = (   0.4964130  -0.0000000  -0.0000000), wk =   0.0312500
        k(   53) = (   0.4964130   0.4964130   0.0000000), wk =   0.0312500
        k(   54) = (   0.2482065   0.7446195  -0.2482065), wk =   0.0312500
        k(   55) = (   0.9928259  -0.0000000   0.4964130), wk =   0.0312500
        k(   56) = (   0.7446195   0.2482065   0.2482065), wk =   0.0312500
        k(   57) = (  -0.2482065  -0.2482065  -0.7446195), wk =   0.0312500
        k(   58) = (  -0.4964130  -0.0000000  -0.9928259), wk =   0.0312500
        k(   59) = (   0.2482065  -0.7446195  -0.2482065), wk =   0.0312500
        k(   60) = (   0.0000000  -0.4964130  -0.4964130), wk =   0.0312500
        k(   61) = (   0.0000000  -0.0000000  -0.4964130), wk =   0.0312500
        k(   62) = (  -0.2482065   0.2482065  -0.7446195), wk =   0.0312500
        k(   63) = (   0.4964130  -0.4964130  -0.0000000), wk =   0.0312500
        k(   64) = (   0.2482065  -0.2482065  -0.2482065), wk =   0.0312500

     Dense  grid:     4909 G-vectors     FFT dimensions: (  24,  24,  24)

     Estimated max dynamical RAM per process >       0.27MB

     Estimated total allocated dynamical RAM >      10.63MB

     Initial potential from superposition of free atoms

     starting charge    7.98607, renormalised to    8.00000
     Starting wfc are random

     Writing output data file c.save

     total cpu time spent up to now is       30.8 secs

     per-process dynamical memory:    27.5 Mb

     Self-consistent Calculation

     iteration #  1     ecut=    60.00 Ry     beta=0.70
     Davidson diagonalization with overlap
     ethr =  1.00E-06,  avg # of iterations = 11.1

     total cpu time spent up to now is       33.4 secs

     total energy              =     -22.63501570 Ry
     Harris-Foulkes estimate   =     -22.67540395 Ry
     estimated scf accuracy    <       0.13679666 Ry

     iteration #  2     ecut=    60.00 Ry     beta=0.70
     Davidson diagonalization with overlap
     ethr =  1.71E-03,  avg # of iterations =  1.2

     total cpu time spent up to now is       33.9 secs

     total energy              =     -22.62466473 Ry
     Harris-Foulkes estimate   =     -22.63828875 Ry
     estimated scf accuracy    <       0.03106363 Ry

     iteration #  3     ecut=    60.00 Ry     beta=0.70
     Davidson diagonalization with overlap
     ethr =  3.88E-04,  avg # of iterations =  2.2

     total cpu time spent up to now is       34.5 secs

     total energy              =     -22.62802329 Ry
     Harris-Foulkes estimate   =     -22.62790614 Ry
     estimated scf accuracy    <       0.00015696 Ry

     iteration #  4     ecut=    60.00 Ry     beta=0.70
     Davidson diagonalization with overlap
     ethr =  1.96E-06,  avg # of iterations =  3.3

     total cpu time spent up to now is       35.4 secs

     total energy              =     -22.62810221 Ry
     Harris-Foulkes estimate   =     -22.62811773 Ry
     estimated scf accuracy    <       0.00004387 Ry

     iteration #  5     ecut=    60.00 Ry     beta=0.70
     Davidson diagonalization with overlap
     ethr =  5.48E-07,  avg # of iterations =  2.8

     total cpu time spent up to now is       36.3 secs

     total energy              =     -22.62810698 Ry
     Harris-Foulkes estimate   =     -22.62810907 Ry
     estimated scf accuracy    <       0.00000592 Ry

     iteration #  6     ecut=    60.00 Ry     beta=0.70
     Davidson diagonalization with overlap
     ethr =  7.39E-08,  avg # of iterations =  2.4

     total cpu time spent up to now is       37.0 secs

     total energy              =     -22.62810771 Ry
     Harris-Foulkes estimate   =     -22.62810769 Ry
     estimated scf accuracy    <       0.00000012 Ry

     iteration #  7     ecut=    60.00 Ry     beta=0.70
     Davidson diagonalization with overlap
     ethr =  1.44E-09,  avg # of iterations =  2.4

     total cpu time spent up to now is       37.7 secs

     total energy              =     -22.62810772 Ry
     Harris-Foulkes estimate   =     -22.62810772 Ry
     estimated scf accuracy    <          4.5E-09 Ry

     iteration #  8     ecut=    60.00 Ry     beta=0.70
     Davidson diagonalization with overlap
     ethr =  5.65E-11,  avg # of iterations =  2.4

     total cpu time spent up to now is       38.4 secs

     total energy              =     -22.62810772 Ry
     Harris-Foulkes estimate   =     -22.62810772 Ry
     estimated scf accuracy    <          2.1E-11 Ry

     iteration #  9     ecut=    60.00 Ry     beta=0.70
     Davidson diagonalization with overlap
     ethr =  2.58E-13,  avg # of iterations =  3.3

     total cpu time spent up to now is       39.3 secs

     total energy              =     -22.62810772 Ry
     Harris-Foulkes estimate   =     -22.62810772 Ry
     estimated scf accuracy    <          2.1E-12 Ry

     iteration # 10     ecut=    60.00 Ry     beta=0.70
     Davidson diagonalization with overlap
     ethr =  1.00E-13,  avg # of iterations =  1.0

     total cpu time spent up to now is       39.7 secs

     total energy              =     -22.62810772 Ry
     Harris-Foulkes estimate   =     -22.62810772 Ry
     estimated scf accuracy    <          6.7E-14 Ry

     iteration # 11     ecut=    60.00 Ry     beta=0.70
     Davidson diagonalization with overlap
     ethr =  1.00E-13,  avg # of iterations =  1.0

     total cpu time spent up to now is       40.1 secs

     total energy              =     -22.62810772 Ry
     Harris-Foulkes estimate   =     -22.62810772 Ry
     estimated scf accuracy    <          4.3E-15 Ry

     iteration # 12     ecut=    60.00 Ry     beta=0.70
     Davidson diagonalization with overlap
     ethr =  1.00E-13,  avg # of iterations =  1.0

     total cpu time spent up to now is       40.5 secs

     total energy              =     -22.62810772 Ry
     Harris-Foulkes estimate   =     -22.62810772 Ry
     estimated scf accuracy    <          1.3E-16 Ry

     iteration # 13     ecut=    60.00 Ry     beta=0.70
     Davidson diagonalization with overlap
     ethr =  1.00E-13,  avg # of iterations =  1.0

     total cpu time spent up to now is       40.9 secs

     End of self-consistent calculation

          k = 0.0000 0.0000 0.0000 (   609 PWs)   bands (ev):

    -7.6363  13.4037  13.4037  13.4037  19.1250  19.1250  19.1250  26.4534

          k =-0.2482 0.2482-0.2482 (   607 PWs)   bands (ev):

    -5.9533   7.0117  11.7235  11.7235  21.2721  21.2721  21.5598  27.8919

          k = 0.4964-0.4964 0.4964 (   610 PWs)   bands (ev):

    -2.0264   0.4265  10.6885  10.6885  22.0040  22.0040  22.2126  29.2266

          k = 0.2482-0.2482 0.2482 (   607 PWs)   bands (ev):

    -5.9533   7.0117  11.7235  11.7235  21.2721  21.2721  21.5598  27.8919

          k = 0.2482 0.2482 0.2482 (   607 PWs)   bands (ev):

    -5.9533   7.0117  11.7235  11.7235  21.2721  21.2721  21.5598  27.8919

          k =-0.0000 0.4964 0.0000 (   592 PWs)   bands (ev):

    -5.3941   8.9612   9.4366   9.4366  18.0715  23.8939  24.9273  24.9273

          k = 0.7446-0.2482 0.7446 (   616 PWs)   bands (ev):

    -1.7456   2.8866   6.8769   8.6893  19.7484  24.9601  26.1688  26.6351

          k = 0.4964-0.0000 0.4964 (   616 PWs)   bands (ev):

    -3.2599   4.8986   6.0705  10.4920  21.5063  23.4355  25.7107  27.2346

          k =-0.4964-0.4964-0.4964 (   610 PWs)   bands (ev):

    -2.0264   0.4265  10.6885  10.6885  22.0040  22.0040  22.2126  29.2266

          k =-0.7446-0.2482-0.7446 (   616 PWs)   bands (ev):

    -1.7456   2.8866   6.8769   8.6893  19.7484  24.9601  26.1688  26.6351

          k = 0.0000-0.9928-0.0000 (   620 PWs)   bands (ev):

     0.8993   0.8993   7.3065   7.3065  18.4980  18.4980  29.9745  29.9745

          k =-0.2482-0.7446-0.2482 (   616 PWs)   bands (ev):

    -1.7456   2.8866   6.8769   8.6893  19.7484  24.9601  26.1688  26.6351

          k =-0.2482-0.2482-0.2482 (   607 PWs)   bands (ev):

    -5.9533   7.0117  11.7235  11.7235  21.2721  21.2721  21.5598  27.8919

          k =-0.4964 0.0000-0.4964 (   616 PWs)   bands (ev):

    -3.2599   4.8986   6.0705  10.4920  21.5063  23.4355  25.7107  27.2346

          k = 0.2482-0.7446 0.2482 (   616 PWs)   bands (ev):

    -1.7456   2.8866   6.8769   8.6893  19.7484  24.9601  26.1688  26.6351

          k = 0.0000-0.4964-0.0000 (   592 PWs)   bands (ev):

    -5.3941   8.9612   9.4366   9.4366  18.0715  23.8939  24.9273  24.9273

          k =-0.2482-0.2482 0.2482 (   607 PWs)   bands (ev):

    -5.9533   7.0117  11.7235  11.7235  21.2721  21.2721  21.5598  27.8919

          k =-0.4964 0.0000 0.0000 (   592 PWs)   bands (ev):

    -5.3941   8.9612   9.4366   9.4366  18.0715  23.8939  24.9273  24.9273

          k = 0.2482-0.7446 0.7446 (   616 PWs)   bands (ev):

    -1.7456   2.8866   6.8769   8.6893  19.7484  24.9601  26.1688  26.6351

          k = 0.0000-0.4964 0.4964 (   616 PWs)   bands (ev):

    -3.2599   4.8986   6.0705  10.4920  21.5063  23.4355  25.7107  27.2346

          k =-0.0000 0.0000 0.4964 (   592 PWs)   bands (ev):

    -5.3941   8.9612   9.4366   9.4366  18.0715  23.8939  24.9273  24.9273

          k =-0.2482 0.2482 0.2482 (   607 PWs)   bands (ev):

    -5.9533   7.0117  11.7235  11.7235  21.2721  21.2721  21.5598  27.8919

          k = 0.4964-0.4964 0.9928 (   616 PWs)   bands (ev):

    -3.2599   4.8986   6.0705  10.4920  21.5063  23.4355  25.7107  27.2346

          k = 0.2482-0.2482 0.7446 (   616 PWs)   bands (ev):

    -1.7456   2.8866   6.8769   8.6893  19.7484  24.9601  26.1688  26.6351

          k =-0.7446-0.7446-0.2482 (   616 PWs)   bands (ev):

    -1.7456   2.8866   6.8769   8.6893  19.7484  24.9601  26.1688  26.6351

          k =-0.9928-0.4964-0.4964 (   616 PWs)   bands (ev):

    -3.2599   4.8986   6.0705  10.4920  21.5063  23.4355  25.7107  27.2346

          k =-0.2482-1.2410 0.2482 (   616 PWs)   bands (ev):

    -1.7456   2.8866   6.8769   8.6893  19.7484  24.9601  26.1688  26.6351

          k =-0.4964-0.9928-0.0000 (   616 PWs)   bands (ev):

     1.6337   1.6337   5.4086   5.4086  24.2403  24.2403  25.6336  25.6336

          k =-0.4964-0.4964-0.0000 (   616 PWs)   bands (ev):

    -3.2599   4.8986   6.0705  10.4920  21.5063  23.4355  25.7107  27.2346

          k =-0.7446-0.2482-0.2482 (   616 PWs)   bands (ev):

    -1.7456   2.8866   6.8769   8.6893  19.7484  24.9601  26.1688  26.6351

          k = 0.0000-0.9928 0.4964 (   616 PWs)   bands (ev):

     1.6337   1.6337   5.4086   5.4086  24.2403  24.2403  25.6336  25.6336

          k =-0.2482-0.7446 0.2482 (   616 PWs)   bands (ev):

    -1.7456   2.8866   6.8769   8.6893  19.7484  24.9601  26.1688  26.6351

          k = 0.4964 0.4964-0.4964 (   610 PWs)   bands (ev):

    -2.0264   0.4265  10.6885  10.6885  22.0040  22.0040  22.2126  29.2266

          k = 0.2482 0.7446-0.7446 (   616 PWs)   bands (ev):

    -1.7456   2.8866   6.8769   8.6893  19.7484  24.9601  26.1688  26.6351

          k = 0.9928-0.0000-0.0000 (   620 PWs)   bands (ev):

     0.8993   0.8993   7.3065   7.3065  18.4980  18.4980  29.9745  29.9745

          k = 0.7446 0.2482-0.2482 (   616 PWs)   bands (ev):

    -1.7456   2.8866   6.8769   8.6893  19.7484  24.9601  26.1688  26.6351

          k = 0.7446 0.7446-0.2482 (   616 PWs)   bands (ev):

    -1.7456   2.8866   6.8769   8.6893  19.7484  24.9601  26.1688  26.6351

          k = 0.4964 0.9928-0.4964 (   616 PWs)   bands (ev):

    -3.2599   4.8986   6.0705  10.4920  21.5063  23.4355  25.7107  27.2346

          k = 1.2410 0.2482 0.2482 (   616 PWs)   bands (ev):

    -1.7456   2.8866   6.8769   8.6893  19.7484  24.9601  26.1688  26.6351

          k = 0.9928 0.4964-0.0000 (   616 PWs)   bands (ev):

     1.6337   1.6337   5.4086   5.4086  24.2403  24.2403  25.6336  25.6336

          k = 0.0000-0.0000-0.9928 (   620 PWs)   bands (ev):

     0.8993   0.8993   7.3065   7.3065  18.4980  18.4980  29.9745  29.9745

          k =-0.2482 0.2482-1.2410 (   616 PWs)   bands (ev):

    -1.7456   2.8866   6.8769   8.6893  19.7484  24.9601  26.1688  26.6351

          k = 0.4964-0.4964-0.4964 (   610 PWs)   bands (ev):

    -2.0264   0.4265  10.6885  10.6885  22.0040  22.0040  22.2126  29.2266

          k = 0.2482-0.2482-0.7446 (   616 PWs)   bands (ev):

    -1.7456   2.8866   6.8769   8.6893  19.7484  24.9601  26.1688  26.6351

          k = 0.2482 0.2482-0.7446 (   616 PWs)   bands (ev):

    -1.7456   2.8866   6.8769   8.6893  19.7484  24.9601  26.1688  26.6351

          k = 0.0000 0.4964-0.9928 (   616 PWs)   bands (ev):

     1.6337   1.6337   5.4086   5.4086  24.2403  24.2403  25.6336  25.6336

          k = 0.7446-0.2482-0.2482 (   616 PWs)   bands (ev):

    -1.7456   2.8866   6.8769   8.6893  19.7484  24.9601  26.1688  26.6351

          k = 0.4964-0.0000-0.4964 (   616 PWs)   bands (ev):

    -3.2599   4.8986   6.0705  10.4920  21.5063  23.4355  25.7107  27.2346

          k = 0.2482 0.2482-0.2482 (   607 PWs)   bands (ev):

    -5.9533   7.0117  11.7235  11.7235  21.2721  21.2721  21.5598  27.8919

          k =-0.0000 0.4964-0.4964 (   616 PWs)   bands (ev):

    -3.2599   4.8986   6.0705  10.4920  21.5063  23.4355  25.7107  27.2346

          k = 0.7446-0.2482 0.2482 (   616 PWs)   bands (ev):

    -1.7456   2.8866   6.8769   8.6893  19.7484  24.9601  26.1688  26.6351

          k = 0.4964-0.0000-0.0000 (   592 PWs)   bands (ev):

    -5.3941   8.9612   9.4366   9.4366  18.0715  23.8939  24.9273  24.9273

          k = 0.4964 0.4964 0.0000 (   616 PWs)   bands (ev):

    -3.2599   4.8986   6.0705  10.4920  21.5063  23.4355  25.7107  27.2346

          k = 0.2482 0.7446-0.2482 (   616 PWs)   bands (ev):

    -1.7456   2.8866   6.8769   8.6893  19.7484  24.9601  26.1688  26.6351

          k = 0.9928-0.0000 0.4964 (   616 PWs)   bands (ev):

     1.6337   1.6337   5.4086   5.4086  24.2403  24.2403  25.6336  25.6336

          k = 0.7446 0.2482 0.2482 (   616 PWs)   bands (ev):

    -1.7456   2.8866   6.8769   8.6893  19.7484  24.9601  26.1688  26.6351

          k =-0.2482-0.2482-0.7446 (   616 PWs)   bands (ev):

    -1.7456   2.8866   6.8769   8.6893  19.7484  24.9601  26.1688  26.6351

          k =-0.4964-0.0000-0.9928 (   616 PWs)   bands (ev):

     1.6337   1.6337   5.4086   5.4086  24.2403  24.2403  25.6336  25.6336

          k = 0.2482-0.7446-0.2482 (   616 PWs)   bands (ev):

    -1.7456   2.8866   6.8769   8.6893  19.7484  24.9601  26.1688  26.6351

          k = 0.0000-0.4964-0.4964 (   616 PWs)   bands (ev):

    -3.2599   4.8986   6.0705  10.4920  21.5063  23.4355  25.7107  27.2346

          k = 0.0000-0.0000-0.4964 (   592 PWs)   bands (ev):

    -5.3941   8.9612   9.4366   9.4366  18.0715  23.8939  24.9273  24.9273

          k =-0.2482 0.2482-0.7446 (   616 PWs)   bands (ev):

    -1.7456   2.8866   6.8769   8.6893  19.7484  24.9601  26.1688  26.6351

          k = 0.4964-0.4964-0.0000 (   616 PWs)   bands (ev):

    -3.2599   4.8986   6.0705  10.4920  21.5063  23.4355  25.7107  27.2346

          k = 0.2482-0.2482-0.2482 (   607 PWs)   bands (ev):

    -5.9533   7.0117  11.7235  11.7235  21.2721  21.2721  21.5598  27.8919

     highest occupied, lowest unoccupied level (ev):    13.4037   18.0715

!    total energy              =     -22.62810772 Ry
     Harris-Foulkes estimate   =     -22.62810772 Ry
     estimated scf accuracy    <          3.7E-18 Ry

     The total energy is the sum of the following terms:

     one-electron contribution =       7.76680635 Ry
     hartree contribution      =       2.03957359 Ry
     xc contribution           =      -6.98309511 Ry
     ewald contribution        =     -25.45139255 Ry

     convergence has been achieved in  13 iterations

     Forces acting on atoms (cartesian axes, Ry/au):

     atom    1 type  1   force =     0.00000000   -0.00000000   -0.00000000
     atom    2 type  1   force =    -0.00000000    0.00000000    0.00000000

     Total force =     0.000000     Total SCF correction =     0.000000


     Computing stress (Cartesian axis) and pressure

          total   stress  (Ry/bohr**3)                   (kbar)     P=    4.74
   0.00003220  -0.00000000  -0.00000000          4.74     -0.00     -0.00
  -0.00000000   0.00003220   0.00000000         -0.00      4.74      0.00
  -0.00000000   0.00000000   0.00003220         -0.00      0.00      4.74


     Writing output data file c.save
 
     init_run     :      1.29s CPU      1.60s WALL (       2 calls)
     electrons    :     37.68s CPU     38.52s WALL (       5 calls)
     update_pot   :      0.02s CPU      0.02s WALL (       3 calls)
     forces       :      0.06s CPU      0.06s WALL (       5 calls)
     stress       :      0.07s CPU      0.07s WALL (       5 calls)

     Called by init_run:
     wfcinit      :      0.93s CPU      0.97s WALL (       2 calls)
     potinit      :      0.01s CPU      0.03s WALL (       2 calls)

     Called by electrons:
     c_bands      :     36.66s CPU     37.35s WALL (      56 calls)
     sum_band     :      0.90s CPU      0.96s WALL (      56 calls)
     v_of_rho     :      0.03s CPU      0.05s WALL (      60 calls)
     mix_rho      :      0.07s CPU      0.07s WALL (      56 calls)

     Called by c_bands:
     init_us_2    :      0.07s CPU      0.07s WALL (    7936 calls)
     cegterg      :     36.37s CPU     37.05s WALL (    3584 calls)

     Called by sum_band:

     Called by *egterg:
     h_psi        :      5.81s CPU      6.00s WALL (   11903 calls)
     g_psi        :      0.01s CPU      0.01s WALL (    8191 calls)
     cdiaghg      :     21.26s CPU     21.51s WALL (   11519 calls)

     Called by h_psi:
     h_psi:pot    :      5.79s CPU      5.97s WALL (   11903 calls)
     h_psi:calbec :      0.40s CPU      0.42s WALL (   11903 calls)
     vloc_psi     :      5.26s CPU      5.42s WALL (   11903 calls)
     add_vuspsi   :      0.09s CPU      0.09s WALL (   11903 calls)

     General routines
     calbec       :      0.42s CPU      0.44s WALL (   13503 calls)
     fft          :      0.22s CPU      0.46s WALL (     700 calls)
     ffts         :      0.02s CPU      0.02s WALL (     620 calls)
     fftw         :      5.75s CPU      5.96s WALL (  189098 calls)
 
     Parallel routines
     fft_scatter  :      4.81s CPU      5.01s WALL (  190418 calls)
 
     PWSCF        :    39.68s CPU        41.45s WALL

 
   This run was terminated on:  12: 5:15  20Jan2021            

=------------------------------------------------------------------------------=
   JOB DONE.
=------------------------------------------------------------------------------=
