
     Program PWSCF v.6.1 (svn rev. 13369) starts on 20Jan2021 at 12:10:57 

     This program is part of the open-source Quantum ESPRESSO suite
     for quantum simulation of materials; please cite
         "P. Giannozzi et al., J. Phys.:Condens. Matter 21 395502 (2009);
          URL http://www.quantum-espresso.org", 
     in publications or presentations arising from this work. More details at
     http://www.quantum-espresso.org/quote

     Parallel version (MPI & OpenMP), running on      40 processor cores
     Number of MPI processes:                40
     Threads/MPI process:                     1
     R & G space division:  proc/nbgrp/npool/nimage =      40
     Waiting for input...
     Reading input from standard input

     Current dimensions of program PWSCF are:
     Max number of different atomic species (ntypx) = 10
     Max number of k-points (npk) =  40000
     Max angular momentum in pseudopotentials (lmaxx) =  3

     IMPORTANT: XC functional enforced from input :
     Exchange-correlation      = BLYP ( 1  3  1  3 0 0)
     Any further DFT definition will be discarded
     Please, verify this is what you really want


     Subspace diagonalization in iterative solution of the eigenvalue problem:
     one sub-group per band group will be used
     scalapack distributed-memory algorithm (size of sub-group:  4*  4 procs)

 
     Parallelization info
     --------------------
     sticks:   dense  smooth     PW     G-vecs:    dense   smooth      PW
     Min           9       9      3                  122      122      23
     Max          10      10      4                  125      125      27
     Sum         379     379    121                 4909     4909     941
 


     bravais-lattice index     =            2
     lattice parameter (alat)  =       6.7728  a.u.
     unit-cell volume          =      77.6689 (a.u.)^3
     number of atoms/cell      =            2
     number of atomic types    =            1
     number of electrons       =         8.00
     number of Kohn-Sham states=            8
     kinetic-energy cutoff     =      60.0000  Ry
     charge density cutoff     =     240.0000  Ry
     convergence threshold     =      1.0E-20
     mixing beta               =       0.7000
     number of iterations used =            8  plain     mixing
     Exchange-correlation      = BLYP ( 1  3  1  3 0 0)

     celldm(1)=   6.772814  celldm(2)=   0.000000  celldm(3)=   0.000000
     celldm(4)=   0.000000  celldm(5)=   0.000000  celldm(6)=   0.000000

     crystal axes: (cart. coord. in units of alat)
               a(1) = (  -0.500000   0.000000   0.500000 )  
               a(2) = (   0.000000   0.500000   0.500000 )  
               a(3) = (  -0.500000   0.500000   0.000000 )  

     reciprocal axes: (cart. coord. in units 2 pi/alat)
               b(1) = ( -1.000000 -1.000000  1.000000 )  
               b(2) = (  1.000000  1.000000  1.000000 )  
               b(3) = ( -1.000000  1.000000 -1.000000 )  


     PseudoPot. # 1 for C  read from file:
     ../C_ONCV_PBE-1.0.upf
     MD5 check sum: 40f8c33130f0afa4272e9dcc1c4fb0df
     Pseudo is Norm-conserving, Zval =  4.0
     Generated using ONCVPSP code by D. R. Hamann
     Using radial grid of  602 points,  4 beta functions with: 
                l(1) =   0
                l(2) =   0
                l(3) =   1
                l(4) =   1

     atomic species   valence    mass     pseudopotential
        C              4.00    12.01100     C ( 1.00)

     No symmetry found



   Cartesian axes

     site n.     atom                  positions (alat units)
         1           C   tau(   1) = (   0.0000000   0.0000000   0.0000000  )
         2           C   tau(   2) = (  -0.2500000   0.2500000   0.2500000  )

     number of k points=    64
                       cart. coord. in units 2pi/alat
        k(    1) = (   0.0000000   0.0000000   0.0000000), wk =   0.0312500
        k(    2) = (  -0.2500000   0.2500000  -0.2500000), wk =   0.0312500
        k(    3) = (   0.5000000  -0.5000000   0.5000000), wk =   0.0312500
        k(    4) = (   0.2500000  -0.2500000   0.2500000), wk =   0.0312500
        k(    5) = (   0.2500000   0.2500000   0.2500000), wk =   0.0312500
        k(    6) = (   0.0000000   0.5000000   0.0000000), wk =   0.0312500
        k(    7) = (   0.7500000  -0.2500000   0.7500000), wk =   0.0312500
        k(    8) = (   0.5000000   0.0000000   0.5000000), wk =   0.0312500
        k(    9) = (  -0.5000000  -0.5000000  -0.5000000), wk =   0.0312500
        k(   10) = (  -0.7500000  -0.2500000  -0.7500000), wk =   0.0312500
        k(   11) = (   0.0000000  -1.0000000   0.0000000), wk =   0.0312500
        k(   12) = (  -0.2500000  -0.7500000  -0.2500000), wk =   0.0312500
        k(   13) = (  -0.2500000  -0.2500000  -0.2500000), wk =   0.0312500
        k(   14) = (  -0.5000000   0.0000000  -0.5000000), wk =   0.0312500
        k(   15) = (   0.2500000  -0.7500000   0.2500000), wk =   0.0312500
        k(   16) = (   0.0000000  -0.5000000   0.0000000), wk =   0.0312500
        k(   17) = (  -0.2500000  -0.2500000   0.2500000), wk =   0.0312500
        k(   18) = (  -0.5000000   0.0000000   0.0000000), wk =   0.0312500
        k(   19) = (   0.2500000  -0.7500000   0.7500000), wk =   0.0312500
        k(   20) = (   0.0000000  -0.5000000   0.5000000), wk =   0.0312500
        k(   21) = (   0.0000000   0.0000000   0.5000000), wk =   0.0312500
        k(   22) = (  -0.2500000   0.2500000   0.2500000), wk =   0.0312500
        k(   23) = (   0.5000000  -0.5000000   1.0000000), wk =   0.0312500
        k(   24) = (   0.2500000  -0.2500000   0.7500000), wk =   0.0312500
        k(   25) = (  -0.7500000  -0.7500000  -0.2500000), wk =   0.0312500
        k(   26) = (  -1.0000000  -0.5000000  -0.5000000), wk =   0.0312500
        k(   27) = (  -0.2500000  -1.2500000   0.2500000), wk =   0.0312500
        k(   28) = (  -0.5000000  -1.0000000   0.0000000), wk =   0.0312500
        k(   29) = (  -0.5000000  -0.5000000   0.0000000), wk =   0.0312500
        k(   30) = (  -0.7500000  -0.2500000  -0.2500000), wk =   0.0312500
        k(   31) = (   0.0000000  -1.0000000   0.5000000), wk =   0.0312500
        k(   32) = (  -0.2500000  -0.7500000   0.2500000), wk =   0.0312500
        k(   33) = (   0.5000000   0.5000000  -0.5000000), wk =   0.0312500
        k(   34) = (   0.2500000   0.7500000  -0.7500000), wk =   0.0312500
        k(   35) = (   1.0000000   0.0000000   0.0000000), wk =   0.0312500
        k(   36) = (   0.7500000   0.2500000  -0.2500000), wk =   0.0312500
        k(   37) = (   0.7500000   0.7500000  -0.2500000), wk =   0.0312500
        k(   38) = (   0.5000000   1.0000000  -0.5000000), wk =   0.0312500
        k(   39) = (   1.2500000   0.2500000   0.2500000), wk =   0.0312500
        k(   40) = (   1.0000000   0.5000000   0.0000000), wk =   0.0312500
        k(   41) = (   0.0000000   0.0000000  -1.0000000), wk =   0.0312500
        k(   42) = (  -0.2500000   0.2500000  -1.2500000), wk =   0.0312500
        k(   43) = (   0.5000000  -0.5000000  -0.5000000), wk =   0.0312500
        k(   44) = (   0.2500000  -0.2500000  -0.7500000), wk =   0.0312500
        k(   45) = (   0.2500000   0.2500000  -0.7500000), wk =   0.0312500
        k(   46) = (   0.0000000   0.5000000  -1.0000000), wk =   0.0312500
        k(   47) = (   0.7500000  -0.2500000  -0.2500000), wk =   0.0312500
        k(   48) = (   0.5000000   0.0000000  -0.5000000), wk =   0.0312500
        k(   49) = (   0.2500000   0.2500000  -0.2500000), wk =   0.0312500
        k(   50) = (   0.0000000   0.5000000  -0.5000000), wk =   0.0312500
        k(   51) = (   0.7500000  -0.2500000   0.2500000), wk =   0.0312500
        k(   52) = (   0.5000000   0.0000000   0.0000000), wk =   0.0312500
        k(   53) = (   0.5000000   0.5000000   0.0000000), wk =   0.0312500
        k(   54) = (   0.2500000   0.7500000  -0.2500000), wk =   0.0312500
        k(   55) = (   1.0000000   0.0000000   0.5000000), wk =   0.0312500
        k(   56) = (   0.7500000   0.2500000   0.2500000), wk =   0.0312500
        k(   57) = (  -0.2500000  -0.2500000  -0.7500000), wk =   0.0312500
        k(   58) = (  -0.5000000   0.0000000  -1.0000000), wk =   0.0312500
        k(   59) = (   0.2500000  -0.7500000  -0.2500000), wk =   0.0312500
        k(   60) = (   0.0000000  -0.5000000  -0.5000000), wk =   0.0312500
        k(   61) = (   0.0000000   0.0000000  -0.5000000), wk =   0.0312500
        k(   62) = (  -0.2500000   0.2500000  -0.7500000), wk =   0.0312500
        k(   63) = (   0.5000000  -0.5000000   0.0000000), wk =   0.0312500
        k(   64) = (   0.2500000  -0.2500000  -0.2500000), wk =   0.0312500

     Dense  grid:     4909 G-vectors     FFT dimensions: (  24,  24,  24)

     Estimated max dynamical RAM per process >       0.22MB

     Estimated total allocated dynamical RAM >       8.89MB

     Initial potential from superposition of free atoms

     starting charge    7.98607, renormalised to    8.00000
     Starting wfc are random

     total cpu time spent up to now is        0.3 secs

     per-process dynamical memory:    18.0 Mb

     Self-consistent Calculation

     iteration #  1     ecut=    60.00 Ry     beta=0.70
     Davidson diagonalization with overlap
     ethr =  1.00E-02,  avg # of iterations =  7.0

     total cpu time spent up to now is        2.1 secs

     total energy              =     -22.61870212 Ry
     Harris-Foulkes estimate   =     -22.67465923 Ry
     estimated scf accuracy    <       0.13534645 Ry

     iteration #  2     ecut=    60.00 Ry     beta=0.70
     Davidson diagonalization with overlap
     ethr =  1.69E-03,  avg # of iterations =  2.0

     total cpu time spent up to now is        2.7 secs

     total energy              =     -22.62755909 Ry
     Harris-Foulkes estimate   =     -22.62787883 Ry
     estimated scf accuracy    <       0.00311661 Ry

     iteration #  3     ecut=    60.00 Ry     beta=0.70
     Davidson diagonalization with overlap
     ethr =  3.90E-05,  avg # of iterations =  2.7

     total cpu time spent up to now is        3.5 secs

     total energy              =     -22.62810215 Ry
     Harris-Foulkes estimate   =     -22.62808256 Ry
     estimated scf accuracy    <       0.00011725 Ry

     iteration #  4     ecut=    60.00 Ry     beta=0.70
     Davidson diagonalization with overlap
     ethr =  1.47E-06,  avg # of iterations =  2.1

     total cpu time spent up to now is        4.1 secs

     total energy              =     -22.62810714 Ry
     Harris-Foulkes estimate   =     -22.62810960 Ry
     estimated scf accuracy    <       0.00000760 Ry

     iteration #  5     ecut=    60.00 Ry     beta=0.70
     Davidson diagonalization with overlap
     ethr =  9.50E-08,  avg # of iterations =  2.1

     total cpu time spent up to now is        4.7 secs

     total energy              =     -22.62810770 Ry
     Harris-Foulkes estimate   =     -22.62810772 Ry
     estimated scf accuracy    <       0.00000005 Ry

     iteration #  6     ecut=    60.00 Ry     beta=0.70
     Davidson diagonalization with overlap
     ethr =  6.85E-10,  avg # of iterations =  2.9

     total cpu time spent up to now is        5.5 secs

     total energy              =     -22.62810772 Ry
     Harris-Foulkes estimate   =     -22.62810772 Ry
     estimated scf accuracy    <          5.4E-09 Ry

     iteration #  7     ecut=    60.00 Ry     beta=0.70
     Davidson diagonalization with overlap
     ethr =  6.79E-11,  avg # of iterations =  2.1

     total cpu time spent up to now is        6.1 secs

     total energy              =     -22.62810772 Ry
     Harris-Foulkes estimate   =     -22.62810772 Ry
     estimated scf accuracy    <          1.3E-10 Ry

     iteration #  8     ecut=    60.00 Ry     beta=0.70
     Davidson diagonalization with overlap
     ethr =  1.60E-12,  avg # of iterations =  2.8

     total cpu time spent up to now is        6.9 secs

     total energy              =     -22.62810772 Ry
     Harris-Foulkes estimate   =     -22.62810772 Ry
     estimated scf accuracy    <          3.1E-12 Ry

     iteration #  9     ecut=    60.00 Ry     beta=0.70
     Davidson diagonalization with overlap
     ethr =  1.00E-13,  avg # of iterations =  1.6

     total cpu time spent up to now is        7.4 secs

     total energy              =     -22.62810772 Ry
     Harris-Foulkes estimate   =     -22.62810772 Ry
     estimated scf accuracy    <          1.4E-13 Ry

     iteration # 10     ecut=    60.00 Ry     beta=0.70
     Davidson diagonalization with overlap
     ethr =  1.00E-13,  avg # of iterations =  1.0

     total cpu time spent up to now is        7.8 secs

     total energy              =     -22.62810772 Ry
     Harris-Foulkes estimate   =     -22.62810772 Ry
     estimated scf accuracy    <          2.8E-15 Ry

     iteration # 11     ecut=    60.00 Ry     beta=0.70
     Davidson diagonalization with overlap
     ethr =  1.00E-13,  avg # of iterations =  1.0

     total cpu time spent up to now is        8.2 secs

     total energy              =     -22.62810772 Ry
     Harris-Foulkes estimate   =     -22.62810772 Ry
     estimated scf accuracy    <          2.0E-17 Ry

     iteration # 12     ecut=    60.00 Ry     beta=0.70
     Davidson diagonalization with overlap
     ethr =  1.00E-13,  avg # of iterations =  1.0

     total cpu time spent up to now is        8.7 secs

     total energy              =     -22.62810772 Ry
     Harris-Foulkes estimate   =     -22.62810772 Ry
     estimated scf accuracy    <          1.3E-17 Ry

     iteration # 13     ecut=    60.00 Ry     beta=0.70
     Davidson diagonalization with overlap
     ethr =  1.00E-13,  avg # of iterations =  1.0

     total cpu time spent up to now is        9.1 secs

     total energy              =     -22.62810772 Ry
     Harris-Foulkes estimate   =     -22.62810772 Ry
     estimated scf accuracy    <          3.8E-20 Ry

     iteration # 14     ecut=    60.00 Ry     beta=0.70
     Davidson diagonalization with overlap
     ethr =  1.00E-13,  avg # of iterations =  1.0

     total cpu time spent up to now is        9.5 secs

     End of self-consistent calculation

          k = 0.0000 0.0000 0.0000 (   609 PWs)   bands (ev):

    -7.6363  13.4037  13.4037  13.4037  19.1250  19.1250  19.1250  26.4534

          k =-0.2500 0.2500-0.2500 (   607 PWs)   bands (ev):

    -5.9533   7.0117  11.7235  11.7235  21.2721  21.2721  21.5598  27.8919

          k = 0.5000-0.5000 0.5000 (   610 PWs)   bands (ev):

    -2.0264   0.4265  10.6885  10.6885  22.0040  22.0040  22.2126  29.2266

          k = 0.2500-0.2500 0.2500 (   607 PWs)   bands (ev):

    -5.9533   7.0117  11.7235  11.7235  21.2721  21.2721  21.5598  27.8919

          k = 0.2500 0.2500 0.2500 (   607 PWs)   bands (ev):

    -5.9533   7.0117  11.7235  11.7235  21.2721  21.2721  21.5598  27.8919

          k = 0.0000 0.5000 0.0000 (   592 PWs)   bands (ev):

    -5.3941   8.9612   9.4366   9.4366  18.0715  23.8939  24.9273  24.9273

          k = 0.7500-0.2500 0.7500 (   616 PWs)   bands (ev):

    -1.7456   2.8866   6.8769   8.6893  19.7484  24.9601  26.1688  26.6351

          k = 0.5000 0.0000 0.5000 (   616 PWs)   bands (ev):

    -3.2599   4.8986   6.0705  10.4920  21.5063  23.4355  25.7107  27.2346

          k =-0.5000-0.5000-0.5000 (   610 PWs)   bands (ev):

    -2.0264   0.4265  10.6885  10.6885  22.0040  22.0040  22.2126  29.2266

          k =-0.7500-0.2500-0.7500 (   616 PWs)   bands (ev):

    -1.7456   2.8866   6.8769   8.6893  19.7484  24.9601  26.1688  26.6351

          k = 0.0000-1.0000 0.0000 (   620 PWs)   bands (ev):

     0.8993   0.8993   7.3065   7.3065  18.4980  18.4980  29.9745  29.9745

          k =-0.2500-0.7500-0.2500 (   616 PWs)   bands (ev):

    -1.7456   2.8866   6.8769   8.6893  19.7484  24.9601  26.1688  26.6351

          k =-0.2500-0.2500-0.2500 (   607 PWs)   bands (ev):

    -5.9533   7.0117  11.7235  11.7235  21.2721  21.2721  21.5598  27.8919

          k =-0.5000 0.0000-0.5000 (   616 PWs)   bands (ev):

    -3.2599   4.8986   6.0705  10.4920  21.5063  23.4355  25.7107  27.2346

          k = 0.2500-0.7500 0.2500 (   616 PWs)   bands (ev):

    -1.7456   2.8866   6.8769   8.6893  19.7484  24.9601  26.1688  26.6351

          k = 0.0000-0.5000 0.0000 (   592 PWs)   bands (ev):

    -5.3941   8.9612   9.4366   9.4366  18.0715  23.8939  24.9273  24.9273

          k =-0.2500-0.2500 0.2500 (   607 PWs)   bands (ev):

    -5.9533   7.0117  11.7235  11.7235  21.2721  21.2721  21.5598  27.8919

          k =-0.5000 0.0000 0.0000 (   592 PWs)   bands (ev):

    -5.3941   8.9612   9.4366   9.4366  18.0715  23.8939  24.9273  24.9273

          k = 0.2500-0.7500 0.7500 (   616 PWs)   bands (ev):

    -1.7456   2.8866   6.8769   8.6893  19.7484  24.9601  26.1688  26.6351

          k = 0.0000-0.5000 0.5000 (   616 PWs)   bands (ev):

    -3.2599   4.8986   6.0705  10.4920  21.5063  23.4355  25.7107  27.2346

          k = 0.0000 0.0000 0.5000 (   592 PWs)   bands (ev):

    -5.3941   8.9612   9.4366   9.4366  18.0715  23.8939  24.9273  24.9273

          k =-0.2500 0.2500 0.2500 (   607 PWs)   bands (ev):

    -5.9533   7.0117  11.7235  11.7235  21.2721  21.2721  21.5598  27.8919

          k = 0.5000-0.5000 1.0000 (   616 PWs)   bands (ev):

    -3.2599   4.8986   6.0705  10.4920  21.5063  23.4355  25.7107  27.2346

          k = 0.2500-0.2500 0.7500 (   616 PWs)   bands (ev):

    -1.7456   2.8866   6.8769   8.6893  19.7484  24.9601  26.1688  26.6351

          k =-0.7500-0.7500-0.2500 (   616 PWs)   bands (ev):

    -1.7456   2.8866   6.8769   8.6893  19.7484  24.9601  26.1688  26.6351

          k =-1.0000-0.5000-0.5000 (   616 PWs)   bands (ev):

    -3.2599   4.8986   6.0705  10.4920  21.5063  23.4355  25.7107  27.2346

          k =-0.2500-1.2500 0.2500 (   616 PWs)   bands (ev):

    -1.7456   2.8866   6.8769   8.6893  19.7484  24.9601  26.1688  26.6351

          k =-0.5000-1.0000 0.0000 (   616 PWs)   bands (ev):

     1.6337   1.6337   5.4086   5.4086  24.2403  24.2403  25.6336  25.6336

          k =-0.5000-0.5000 0.0000 (   616 PWs)   bands (ev):

    -3.2599   4.8986   6.0705  10.4920  21.5063  23.4355  25.7107  27.2346

          k =-0.7500-0.2500-0.2500 (   616 PWs)   bands (ev):

    -1.7456   2.8866   6.8769   8.6893  19.7484  24.9601  26.1688  26.6351

          k = 0.0000-1.0000 0.5000 (   616 PWs)   bands (ev):

     1.6337   1.6337   5.4086   5.4086  24.2403  24.2403  25.6336  25.6336

          k =-0.2500-0.7500 0.2500 (   616 PWs)   bands (ev):

    -1.7456   2.8866   6.8769   8.6893  19.7484  24.9601  26.1688  26.6351

          k = 0.5000 0.5000-0.5000 (   610 PWs)   bands (ev):

    -2.0264   0.4265  10.6885  10.6885  22.0040  22.0040  22.2126  29.2266

          k = 0.2500 0.7500-0.7500 (   616 PWs)   bands (ev):

    -1.7456   2.8866   6.8769   8.6893  19.7484  24.9601  26.1688  26.6351

          k = 1.0000 0.0000 0.0000 (   620 PWs)   bands (ev):

     0.8993   0.8993   7.3065   7.3065  18.4980  18.4980  29.9745  29.9745

          k = 0.7500 0.2500-0.2500 (   616 PWs)   bands (ev):

    -1.7456   2.8866   6.8769   8.6893  19.7484  24.9601  26.1688  26.6351

          k = 0.7500 0.7500-0.2500 (   616 PWs)   bands (ev):

    -1.7456   2.8866   6.8769   8.6893  19.7484  24.9601  26.1688  26.6351

          k = 0.5000 1.0000-0.5000 (   616 PWs)   bands (ev):

    -3.2599   4.8986   6.0705  10.4920  21.5063  23.4355  25.7107  27.2346

          k = 1.2500 0.2500 0.2500 (   616 PWs)   bands (ev):

    -1.7456   2.8866   6.8769   8.6893  19.7484  24.9601  26.1688  26.6351

          k = 1.0000 0.5000 0.0000 (   616 PWs)   bands (ev):

     1.6337   1.6337   5.4086   5.4086  24.2403  24.2403  25.6336  25.6336

          k = 0.0000 0.0000-1.0000 (   620 PWs)   bands (ev):

     0.8993   0.8993   7.3065   7.3065  18.4980  18.4980  29.9745  29.9745

          k =-0.2500 0.2500-1.2500 (   616 PWs)   bands (ev):

    -1.7456   2.8866   6.8769   8.6893  19.7484  24.9601  26.1688  26.6351

          k = 0.5000-0.5000-0.5000 (   610 PWs)   bands (ev):

    -2.0264   0.4265  10.6885  10.6885  22.0040  22.0040  22.2126  29.2266

          k = 0.2500-0.2500-0.7500 (   616 PWs)   bands (ev):

    -1.7456   2.8866   6.8769   8.6893  19.7484  24.9601  26.1688  26.6351

          k = 0.2500 0.2500-0.7500 (   616 PWs)   bands (ev):

    -1.7456   2.8866   6.8769   8.6893  19.7484  24.9601  26.1688  26.6351

          k = 0.0000 0.5000-1.0000 (   616 PWs)   bands (ev):

     1.6337   1.6337   5.4086   5.4086  24.2403  24.2403  25.6336  25.6336

          k = 0.7500-0.2500-0.2500 (   616 PWs)   bands (ev):

    -1.7456   2.8866   6.8769   8.6893  19.7484  24.9601  26.1688  26.6351

          k = 0.5000 0.0000-0.5000 (   616 PWs)   bands (ev):

    -3.2599   4.8986   6.0705  10.4920  21.5063  23.4355  25.7107  27.2346

          k = 0.2500 0.2500-0.2500 (   607 PWs)   bands (ev):

    -5.9533   7.0117  11.7235  11.7235  21.2721  21.2721  21.5598  27.8919

          k = 0.0000 0.5000-0.5000 (   616 PWs)   bands (ev):

    -3.2599   4.8986   6.0705  10.4920  21.5063  23.4355  25.7107  27.2346

          k = 0.7500-0.2500 0.2500 (   616 PWs)   bands (ev):

    -1.7456   2.8866   6.8769   8.6893  19.7484  24.9601  26.1688  26.6351

          k = 0.5000 0.0000 0.0000 (   592 PWs)   bands (ev):

    -5.3941   8.9612   9.4366   9.4366  18.0715  23.8939  24.9273  24.9273

          k = 0.5000 0.5000 0.0000 (   616 PWs)   bands (ev):

    -3.2599   4.8986   6.0705  10.4920  21.5063  23.4355  25.7107  27.2346

          k = 0.2500 0.7500-0.2500 (   616 PWs)   bands (ev):

    -1.7456   2.8866   6.8769   8.6893  19.7484  24.9601  26.1688  26.6351

          k = 1.0000 0.0000 0.5000 (   616 PWs)   bands (ev):

     1.6337   1.6337   5.4086   5.4086  24.2403  24.2403  25.6336  25.6336

          k = 0.7500 0.2500 0.2500 (   616 PWs)   bands (ev):

    -1.7456   2.8866   6.8769   8.6893  19.7484  24.9601  26.1688  26.6351

          k =-0.2500-0.2500-0.7500 (   616 PWs)   bands (ev):

    -1.7456   2.8866   6.8769   8.6893  19.7484  24.9601  26.1688  26.6351

          k =-0.5000 0.0000-1.0000 (   616 PWs)   bands (ev):

     1.6337   1.6337   5.4086   5.4086  24.2403  24.2403  25.6336  25.6336

          k = 0.2500-0.7500-0.2500 (   616 PWs)   bands (ev):

    -1.7456   2.8866   6.8769   8.6893  19.7484  24.9601  26.1688  26.6351

          k = 0.0000-0.5000-0.5000 (   616 PWs)   bands (ev):

    -3.2599   4.8986   6.0705  10.4920  21.5063  23.4355  25.7107  27.2346

          k = 0.0000 0.0000-0.5000 (   592 PWs)   bands (ev):

    -5.3941   8.9612   9.4366   9.4366  18.0715  23.8939  24.9273  24.9273

          k =-0.2500 0.2500-0.7500 (   616 PWs)   bands (ev):

    -1.7456   2.8866   6.8769   8.6893  19.7484  24.9601  26.1688  26.6351

          k = 0.5000-0.5000 0.0000 (   616 PWs)   bands (ev):

    -3.2599   4.8986   6.0705  10.4920  21.5063  23.4355  25.7107  27.2346

          k = 0.2500-0.2500-0.2500 (   607 PWs)   bands (ev):

    -5.9533   7.0117  11.7235  11.7235  21.2721  21.2721  21.5598  27.8919

     highest occupied, lowest unoccupied level (ev):    13.4037   18.0715

!    total energy              =     -22.62810772 Ry
     Harris-Foulkes estimate   =     -22.62810772 Ry
     estimated scf accuracy    <          6.5E-21 Ry

     The total energy is the sum of the following terms:

     one-electron contribution =       7.76680635 Ry
     hartree contribution      =       2.03957359 Ry
     xc contribution           =      -6.98309511 Ry
     ewald contribution        =     -25.45139255 Ry

     convergence has been achieved in  14 iterations

     Writing output data file c.save
 
     init_run     :      0.23s CPU      0.24s WALL (       1 calls)
     electrons    :      8.99s CPU      9.19s WALL (       1 calls)

     Called by init_run:
     wfcinit      :      0.22s CPU      0.23s WALL (       1 calls)
     potinit      :      0.00s CPU      0.00s WALL (       1 calls)

     Called by electrons:
     c_bands      :      8.74s CPU      8.92s WALL (      14 calls)
     sum_band     :      0.23s CPU      0.24s WALL (      14 calls)
     v_of_rho     :      0.01s CPU      0.01s WALL (      15 calls)
     mix_rho      :      0.01s CPU      0.01s WALL (      14 calls)

     Called by c_bands:
     init_us_2    :      0.02s CPU      0.02s WALL (    1856 calls)
     cegterg      :      8.67s CPU      8.85s WALL (     896 calls)

     Called by sum_band:

     Called by *egterg:
     h_psi        :      1.42s CPU      1.47s WALL (    2894 calls)
     g_psi        :      0.00s CPU      0.00s WALL (    1934 calls)
     cdiaghg      :      4.97s CPU      5.04s WALL (    2830 calls)

     Called by h_psi:
     h_psi:pot    :      1.41s CPU      1.46s WALL (    2894 calls)
     h_psi:calbec :      0.10s CPU      0.10s WALL (    2894 calls)
     vloc_psi     :      1.28s CPU      1.33s WALL (    2894 calls)
     add_vuspsi   :      0.02s CPU      0.02s WALL (    2894 calls)

     General routines
     calbec       :      0.09s CPU      0.10s WALL (    2894 calls)
     fft          :      0.01s CPU      0.01s WALL (     164 calls)
     fftw         :      1.41s CPU      1.46s WALL (   45920 calls)
 
     Parallel routines
     fft_scatter  :      1.13s CPU      1.18s WALL (   46084 calls)
 
     PWSCF        :     9.57s CPU        10.15s WALL

 
   This run was terminated on:  12:11: 8  20Jan2021            

=------------------------------------------------------------------------------=
   JOB DONE.
=------------------------------------------------------------------------------=
