
     Program PWSCF v.6.1 (svn rev. 13369) starts on  8Dec2020 at 11:27:29 

     This program is part of the open-source Quantum ESPRESSO suite
     for quantum simulation of materials; please cite
         "P. Giannozzi et al., J. Phys.:Condens. Matter 21 395502 (2009);
          URL http://www.quantum-espresso.org", 
     in publications or presentations arising from this work. More details at
     http://www.quantum-espresso.org/quote

     Parallel version (MPI & OpenMP), running on      40 processor cores
     Number of MPI processes:                40
     Threads/MPI process:                     1
     R & G space division:  proc/nbgrp/npool/nimage =      40
     Waiting for input...
     Reading input from standard input

     Current dimensions of program PWSCF are:
     Max number of different atomic species (ntypx) = 10
     Max number of k-points (npk) =  40000
     Max angular momentum in pseudopotentials (lmaxx) =  3

     IMPORTANT: XC functional enforced from input :
     Exchange-correlation      = PZ ( 1  1  0  0 0 0)
     Any further DFT definition will be discarded
     Please, verify this is what you really want

               file C.pz-mt.fhi.UPF: wavefunction(s)  3d renormalized

     Subspace diagonalization in iterative solution of the eigenvalue problem:
     one sub-group per band group will be used
     scalapack distributed-memory algorithm (size of sub-group:  4*  4 procs)

 
     Parallelization info
     --------------------
     sticks:   dense  smooth     PW     G-vecs:    dense   smooth      PW
     Min          12      12      4                  183      183      32
     Max          13      13      5                  187      187      36
     Sum         499     499    163                 7391     7391    1363
 


     bravais-lattice index     =            2
     lattice parameter (alat)  =       6.7034  a.u.
     unit-cell volume          =      75.3061 (a.u.)^3
     number of atoms/cell      =            2
     number of atomic types    =            1
     number of electrons       =         8.00
     number of Kohn-Sham states=            8
     kinetic-energy cutoff     =      80.0000  Ry
     charge density cutoff     =     320.0000  Ry
     convergence threshold     =      1.0E-15
     mixing beta               =       0.7000
     number of iterations used =            8  local-TF  mixing
     Exchange-correlation      = PZ ( 1  1  0  0 0 0)
     nstep                     =           50


     celldm(1)=   6.703426  celldm(2)=   0.000000  celldm(3)=   0.000000
     celldm(4)=   0.000000  celldm(5)=   0.000000  celldm(6)=   0.000000

     crystal axes: (cart. coord. in units of alat)
               a(1) = (  -0.500000   0.000000   0.500000 )  
               a(2) = (   0.000000   0.500000   0.500000 )  
               a(3) = (  -0.500000   0.500000   0.000000 )  

     reciprocal axes: (cart. coord. in units 2 pi/alat)
               b(1) = ( -1.000000 -1.000000  1.000000 )  
               b(2) = (  1.000000  1.000000  1.000000 )  
               b(3) = ( -1.000000  1.000000 -1.000000 )  


     PseudoPot. # 1 for  C read from file:
     ../C.pz-mt.fhi.UPF
     MD5 check sum: b7c38bc33a0cf75f44be89b84470f298
     Pseudo is Norm-conserving, Zval =  4.0
     Generated using FHI98PP, converted with fhi2upf.x v.5.0.2
     Using radial grid of  461 points,  2 beta functions with: 
                l(1) =   0
                l(2) =   1

     atomic species   valence    mass     pseudopotential
        C              4.00    12.01100      C( 1.00)

     24 Sym. Ops. (no inversion) found
          (note: 24 additional sym.ops. were found but ignored
           their fractional translations are incommensurate with FFT grid)


   Cartesian axes

     site n.     atom                  positions (alat units)
         1           C   tau(   1) = (   0.0000000   0.0000000   0.0000000  )
         2           C   tau(   2) = (  -0.2500000   0.2500000   0.2500000  )

     number of k points=    35
                       cart. coord. in units 2pi/alat
        k(    1) = (   0.0000000   0.0000000   0.0000000), wk =   0.0027435
        k(    2) = (  -0.1111111   0.1111111  -0.1111111), wk =   0.0219479
        k(    3) = (  -0.2222222   0.2222222  -0.2222222), wk =   0.0219479
        k(    4) = (  -0.3333333   0.3333333  -0.3333333), wk =   0.0219479
        k(    5) = (  -0.4444444   0.4444444  -0.4444444), wk =   0.0219479
        k(    6) = (   0.0000000   0.2222222   0.0000000), wk =   0.0164609
        k(    7) = (  -0.1111111   0.3333333  -0.1111111), wk =   0.0658436
        k(    8) = (  -0.2222222   0.4444444  -0.2222222), wk =   0.0658436
        k(    9) = (  -0.3333333   0.5555556  -0.3333333), wk =   0.0658436
        k(   10) = (   0.5555556  -0.3333333   0.5555556), wk =   0.0658436
        k(   11) = (   0.4444444  -0.2222222   0.4444444), wk =   0.0658436
        k(   12) = (   0.3333333  -0.1111111   0.3333333), wk =   0.0658436
        k(   13) = (   0.2222222  -0.0000000   0.2222222), wk =   0.0329218
        k(   14) = (   0.0000000   0.4444444   0.0000000), wk =   0.0164609
        k(   15) = (  -0.1111111   0.5555556  -0.1111111), wk =   0.0658436
        k(   16) = (  -0.2222222   0.6666667  -0.2222222), wk =   0.0658436
        k(   17) = (   0.6666667  -0.2222222   0.6666667), wk =   0.0658436
        k(   18) = (   0.5555556  -0.1111111   0.5555556), wk =   0.0658436
        k(   19) = (   0.4444444   0.0000000   0.4444444), wk =   0.0329218
        k(   20) = (   0.0000000   0.6666667   0.0000000), wk =   0.0164609
        k(   21) = (  -0.1111111   0.7777778  -0.1111111), wk =   0.0658436
        k(   22) = (   0.7777778  -0.1111111   0.7777778), wk =   0.0658436
        k(   23) = (   0.6666667  -0.0000000   0.6666667), wk =   0.0329218
        k(   24) = (   0.0000000   0.8888889   0.0000000), wk =   0.0164609
        k(   25) = (   0.8888889   0.0000000   0.8888889), wk =   0.0329218
        k(   26) = (  -0.2222222   0.4444444   0.0000000), wk =   0.0658436
        k(   27) = (  -0.3333333   0.5555556  -0.1111111), wk =   0.1316872
        k(   28) = (   0.5555556  -0.3333333   0.7777778), wk =   0.1316872
        k(   29) = (  -0.2222222   0.6666667   0.0000000), wk =   0.0658436
        k(   30) = (   0.6666667  -0.2222222   0.8888889), wk =   0.1316872
        k(   31) = (   0.5555556  -0.1111111   0.7777778), wk =   0.1316872
        k(   32) = (   0.4444444   0.0000000   0.6666667), wk =   0.0658436
        k(   33) = (   0.7777778  -0.1111111   1.0000000), wk =   0.0658436
        k(   34) = (   0.6666667  -0.0000000   0.8888889), wk =   0.0658436
        k(   35) = (   0.5555556  -0.1111111   1.0000000), wk =   0.0658436

     Dense  grid:     7391 G-vectors     FFT dimensions: (  27,  27,  27)

     Estimated max dynamical RAM per process >       0.31MB

     Estimated total allocated dynamical RAM >      12.28MB
     Message from routine sym_rho_init:
     some processors have no G-vectors for symmetrization

     Initial potential from superposition of free atoms

     starting charge    7.99993, renormalised to    8.00000
     Starting wfc are   18 randomized atomic wfcs

     total cpu time spent up to now is        0.4 secs

     per-process dynamical memory:     9.4 Mb

     Self-consistent Calculation

     iteration #  1     ecut=    80.00 Ry     beta=0.70
     Davidson diagonalization with overlap
     ethr =  1.00E-02,  avg # of iterations =  2.9

     total cpu time spent up to now is        1.0 secs

     total energy              =     -22.89622576 Ry
     Harris-Foulkes estimate   =     -22.94607377 Ry
     estimated scf accuracy    <       0.12961503 Ry

     iteration #  2     ecut=    80.00 Ry     beta=0.70
     Davidson diagonalization with overlap
     ethr =  1.62E-03,  avg # of iterations =  1.4

     total cpu time spent up to now is        1.4 secs

     total energy              =     -22.88619049 Ry
     Harris-Foulkes estimate   =     -22.90050803 Ry
     estimated scf accuracy    <       0.02656397 Ry

     iteration #  3     ecut=    80.00 Ry     beta=0.70
     Davidson diagonalization with overlap
     ethr =  3.32E-04,  avg # of iterations =  2.1

     total cpu time spent up to now is        1.9 secs

     total energy              =     -22.88936581 Ry
     Harris-Foulkes estimate   =     -22.88932610 Ry
     estimated scf accuracy    <       0.00012217 Ry

     iteration #  4     ecut=    80.00 Ry     beta=0.70
     Davidson diagonalization with overlap
     ethr =  1.53E-06,  avg # of iterations =  2.1

     total cpu time spent up to now is        2.4 secs

     total energy              =     -22.88939392 Ry
     Harris-Foulkes estimate   =     -22.88939745 Ry
     estimated scf accuracy    <       0.00000950 Ry

     iteration #  5     ecut=    80.00 Ry     beta=0.70
     Davidson diagonalization with overlap
     ethr =  1.19E-07,  avg # of iterations =  2.0

     total cpu time spent up to now is        2.8 secs

     total energy              =     -22.88939498 Ry
     Harris-Foulkes estimate   =     -22.88939487 Ry
     estimated scf accuracy    <       0.00000024 Ry

     iteration #  6     ecut=    80.00 Ry     beta=0.70
     Davidson diagonalization with overlap
     ethr =  2.97E-09,  avg # of iterations =  2.1

     total cpu time spent up to now is        3.3 secs

     total energy              =     -22.88939501 Ry
     Harris-Foulkes estimate   =     -22.88939501 Ry
     estimated scf accuracy    <          8.1E-10 Ry

     iteration #  7     ecut=    80.00 Ry     beta=0.70
     Davidson diagonalization with overlap
     ethr =  1.02E-11,  avg # of iterations =  2.8

     total cpu time spent up to now is        3.9 secs

     total energy              =     -22.88939501 Ry
     Harris-Foulkes estimate   =     -22.88939501 Ry
     estimated scf accuracy    <          4.7E-10 Ry

     iteration #  8     ecut=    80.00 Ry     beta=0.70
     Davidson diagonalization with overlap
     ethr =  5.82E-12,  avg # of iterations =  2.2

     total cpu time spent up to now is        4.4 secs

     total energy              =     -22.88939501 Ry
     Harris-Foulkes estimate   =     -22.88939501 Ry
     estimated scf accuracy    <          1.1E-12 Ry

     iteration #  9     ecut=    80.00 Ry     beta=0.70
     Davidson diagonalization with overlap
     ethr =  1.00E-13,  avg # of iterations =  2.0

     total cpu time spent up to now is        4.9 secs

     total energy              =     -22.88939501 Ry
     Harris-Foulkes estimate   =     -22.88939501 Ry
     estimated scf accuracy    <          2.5E-13 Ry

     iteration # 10     ecut=    80.00 Ry     beta=0.70
     Davidson diagonalization with overlap
     ethr =  1.00E-13,  avg # of iterations =  1.0

     total cpu time spent up to now is        5.2 secs

     total energy              =     -22.88939501 Ry
     Harris-Foulkes estimate   =     -22.88939501 Ry
     estimated scf accuracy    <          7.4E-15 Ry

     iteration # 11     ecut=    80.00 Ry     beta=0.70
     Davidson diagonalization with overlap
     ethr =  1.00E-13,  avg # of iterations =  1.0

     total cpu time spent up to now is        5.5 secs

     End of self-consistent calculation

          k = 0.0000 0.0000 0.0000 (   941 PWs)   bands (ev):

    -8.1914  13.2958  13.2958  13.2958  18.9012  18.9012  18.9012  27.0686

          k =-0.1111 0.1111-0.1111 (   914 PWs)   bands (ev):

    -7.8448  11.3133  12.7559  12.7559  19.6102  19.6102  20.0335  27.2930

          k =-0.2222 0.2222-0.2222 (   914 PWs)   bands (ev):

    -6.8130   7.6797  11.7683  11.7683  20.8576  20.8576  21.3989  27.8965

          k =-0.3333 0.3333-0.3333 (   926 PWs)   bands (ev):

    -5.1281   3.9407  10.9601  10.9601  21.5960  21.5960  22.1574  28.5486

          k =-0.4444 0.4444-0.4444 (   899 PWs)   bands (ev):

    -2.9523   0.6705  10.5315  10.5315  21.7667  21.7667  22.4769  28.8533

          k = 0.0000 0.2222 0.0000 (   917 PWs)   bands (ev):

    -7.7295  11.8356  11.8356  12.2799  18.5807  20.7473  20.7473  27.0460

          k =-0.1111 0.3333-0.1111 (   915 PWs)   bands (ev):

    -6.9265   8.9664  10.7680  11.6917  19.1134  22.2146  22.2200  26.6699

          k =-0.2222 0.4444-0.2222 (   908 PWs)   bands (ev):

    -5.4583   5.3415  10.0411  10.6818  20.2393  23.0632  23.1225  26.8498

          k =-0.3333 0.5556-0.3333 (   904 PWs)   bands (ev):

    -3.4103   1.9148   9.7501   9.8059  20.8912  23.0591  23.5137  28.0316

          k = 0.5556-0.3333 0.5556 (   907 PWs)   bands (ev):

    -2.0786   0.2277   9.1671  10.0766  21.3453  22.6379  23.5682  28.8858

          k = 0.4444-0.2222 0.4444 (   908 PWs)   bands (ev):

    -4.1451   3.0126   9.0506  10.7908  21.8478  22.0152  23.3028  28.3238

          k = 0.3333-0.1111 0.3333 (   917 PWs)   bands (ev):

    -6.0195   6.5749   9.4517  11.7934  21.0052  22.0017  22.4892  27.4931

          k = 0.2222-0.0000 0.2222 (   915 PWs)   bands (ev):

    -7.2700   9.9338  10.5402  12.7019  19.8249  21.0016  21.2788  27.3471

          k = 0.0000 0.4444 0.0000 (   897 PWs)   bands (ev):

    -6.3561   9.6223   9.6223   9.7116  17.9384  24.0646  24.0646  24.5569

          k =-0.1111 0.5556-0.1111 (   906 PWs)   bands (ev):

    -5.1179   6.7671   8.8355   8.9821  18.4996  23.4383  25.3766  25.3960

          k =-0.2222 0.6667-0.2222 (   902 PWs)   bands (ev):

    -3.2688   3.5915   7.7119   8.5848  19.4450  24.4985  25.6377  25.9834

          k = 0.6667-0.2222 0.6667 (   912 PWs)   bands (ev):

    -1.2673   1.0171   6.6594   8.9014  20.0389  25.0808  26.1159  27.2473

          k = 0.5556-0.1111 0.5556 (   906 PWs)   bands (ev):

    -2.5706   2.6743   6.1176   9.7213  20.8323  24.0109  25.9202  28.2810

          k = 0.4444 0.0000 0.4444 (   909 PWs)   bands (ev):

    -4.5731   5.5978   6.5004  10.8473  21.7335  22.4642  24.6650  27.1708

          k = 0.0000 0.6667 0.0000 (   906 PWs)   bands (ev):

    -4.1147   6.2609   7.9344   7.9344  17.5110  21.0740  27.3865  27.3865

          k =-0.1111 0.7778-0.1111 (   910 PWs)   bands (ev):

    -2.4917   4.2372   6.5564   7.5664  18.2164  20.7327  28.2501  28.4033

          k = 0.7778-0.1111 0.7778 (   919 PWs)   bands (ev):

    -0.4547   2.2412   4.6509   7.7917  18.9008  23.2558  27.7963  28.6559

          k = 0.6667-0.0000 0.6667 (   901 PWs)   bands (ev):

    -0.6168   2.4570   3.8032   8.5685  19.6850  26.2647  26.9162  28.4204

          k = 0.0000 0.8889 0.0000 (   926 PWs)   bands (ev):

    -1.1026   2.4798   7.0497   7.0497  17.6904  18.7799  29.7822  29.7822

          k = 0.8889 0.0000 0.8889 (   922 PWs)   bands (ev):

     0.7250   0.8398   5.8769   7.1295  18.2853  19.6448  29.6021  29.8844

          k =-0.2222 0.4444 0.0000 (   914 PWs)   bands (ev):

    -5.9053   7.6566   8.4576  10.9825  19.6464  23.1046  24.0299  25.6419

          k =-0.3333 0.5556-0.1111 (   905 PWs)   bands (ev):

    -4.2430   4.5495   7.6446   9.9220  20.9163  22.9907  25.3190  26.1224

          k = 0.5556-0.3333 0.7778 (   909 PWs)   bands (ev):

    -2.1169   1.4612   7.5363   9.0710  21.4540  22.7571  25.8461  27.9304

          k =-0.2222 0.6667 0.0000 (   904 PWs)   bands (ev):

    -3.6858   5.4830   6.8601   8.1834  19.2822  22.4667  25.7793  27.4439

          k = 0.6667-0.2222 0.8889 (   908 PWs)   bands (ev):

    -1.7131   3.0860   5.8169   7.4118  20.4669  23.6680  25.6148  28.3038

          k = 0.5556-0.1111 0.7778 (   911 PWs)   bands (ev):

    -0.5051   1.7400   5.0119   7.7120  21.0961  24.5263  27.0792  27.5564

          k = 0.4444 0.0000 0.6667 (   905 PWs)   bands (ev):

    -2.4434   3.8960   5.0253   8.7199  21.9712  23.0187  26.2096  27.6585

          k = 0.7778-0.1111 1.0000 (   912 PWs)   bands (ev):

    -0.7361   2.6138   6.0892   6.3676  19.4385  20.4169  28.3194  29.4186

          k = 0.6667-0.0000 0.8889 (   917 PWs)   bands (ev):

     0.8703   1.5278   4.3072   6.6602  20.2863  23.1971  27.4846  28.2730

          k = 0.5556-0.1111 1.0000 (   905 PWs)   bands (ev):

     0.2049   2.4319   4.5458   5.8563  23.2382  23.2766  25.5018  27.4149

     highest occupied, lowest unoccupied level (ev):    13.2958   17.5110

!    total energy              =     -22.88939501 Ry
     Harris-Foulkes estimate   =     -22.88939501 Ry
     estimated scf accuracy    <          1.3E-16 Ry

     The total energy is the sum of the following terms:

     one-electron contribution =       8.01424766 Ry
     hartree contribution      =       1.90776227 Ry
     xc contribution           =      -7.09656153 Ry
     ewald contribution        =     -25.71484342 Ry

     convergence has been achieved in  11 iterations

     Forces acting on atoms (cartesian axes, Ry/au):

     atom    1 type  1   force =    -0.00000000    0.00000000   -0.00000000
     atom    2 type  1   force =    -0.00000000   -0.00000000   -0.00000000

     Total force =     0.000000     Total SCF correction =     0.000000


     Computing stress (Cartesian axis) and pressure

          total   stress  (Ry/bohr**3)                   (kbar)     P= -107.31
  -0.00072947  -0.00000000  -0.00000000       -107.31     -0.00     -0.00
   0.00000000  -0.00072947   0.00000000          0.00   -107.31      0.00
  -0.00000000   0.00000000  -0.00072947         -0.00      0.00   -107.31


     BFGS Geometry Optimization

     number of scf cycles    =   1
     number of bfgs steps    =   0

     enthalpy new            =     -22.8893950137 Ry

     new trust radius        =       0.0316515412 bohr
     new conv_thr            =            1.0E-15 Ry

     new unit-cell volume =     71.26078 a.u.^3 (    10.55976 Ang^3 )
     density =      3.77750 g/cm^3

CELL_PARAMETERS (alat=  6.70342551)
  -0.490881578  -0.000000000   0.490881578
  -0.000000000   0.490881578   0.490881578
  -0.490881578   0.490881578   0.000000000

ATOMIC_POSITIONS (crystal)
C       -0.000000000  -0.000000000   0.000000000
C        0.250000000   0.250000000   0.250000000



     Writing output data file c.save
     NEW-OLD atomic charge density approx. for the potential
     extrapolated charge    7.54586, renormalised to    8.00000

     total cpu time spent up to now is        5.6 secs

     per-process dynamical memory:    10.9 Mb

     Self-consistent Calculation

     iteration #  1     ecut=    80.00 Ry     beta=0.70
     Davidson diagonalization with overlap
     ethr =  1.00E-06,  avg # of iterations =  4.1

     total cpu time spent up to now is        6.4 secs

     total energy              =     -22.88596396 Ry
     Harris-Foulkes estimate   =     -22.56675259 Ry
     estimated scf accuracy    <       0.00154696 Ry

     iteration #  2     ecut=    80.00 Ry     beta=0.70
     Davidson diagonalization with overlap
     ethr =  1.93E-05,  avg # of iterations =  3.2

     total cpu time spent up to now is        7.1 secs

     total energy              =     -22.88893736 Ry
     Harris-Foulkes estimate   =     -22.88903777 Ry
     estimated scf accuracy    <       0.00033876 Ry

     iteration #  3     ecut=    80.00 Ry     beta=0.70
     Davidson diagonalization with overlap
     ethr =  4.23E-06,  avg # of iterations =  1.0

     total cpu time spent up to now is        7.5 secs

     total energy              =     -22.88887656 Ry
     Harris-Foulkes estimate   =     -22.88894362 Ry
     estimated scf accuracy    <       0.00012457 Ry

     iteration #  4     ecut=    80.00 Ry     beta=0.70
     Davidson diagonalization with overlap
     ethr =  1.56E-06,  avg # of iterations =  2.0

     total cpu time spent up to now is        7.9 secs

     total energy              =     -22.88888859 Ry
     Harris-Foulkes estimate   =     -22.88888852 Ry
     estimated scf accuracy    <       0.00000114 Ry

     iteration #  5     ecut=    80.00 Ry     beta=0.70
     Davidson diagonalization with overlap
     ethr =  1.42E-08,  avg # of iterations =  2.7

     total cpu time spent up to now is        8.5 secs

     total energy              =     -22.88888892 Ry
     Harris-Foulkes estimate   =     -22.88888900 Ry
     estimated scf accuracy    <       0.00000015 Ry

     iteration #  6     ecut=    80.00 Ry     beta=0.70
     Davidson diagonalization with overlap
     ethr =  1.89E-09,  avg # of iterations =  2.1

     total cpu time spent up to now is        9.0 secs

     total energy              =     -22.88888894 Ry
     Harris-Foulkes estimate   =     -22.88888894 Ry
     estimated scf accuracy    <          2.9E-09 Ry

     iteration #  7     ecut=    80.00 Ry     beta=0.70
     Davidson diagonalization with overlap
     ethr =  3.58E-11,  avg # of iterations =  2.3

     total cpu time spent up to now is        9.5 secs

     total energy              =     -22.88888894 Ry
     Harris-Foulkes estimate   =     -22.88888894 Ry
     estimated scf accuracy    <          3.4E-11 Ry

     iteration #  8     ecut=    80.00 Ry     beta=0.70
     Davidson diagonalization with overlap
     ethr =  4.20E-13,  avg # of iterations =  2.3

     total cpu time spent up to now is       10.0 secs

     total energy              =     -22.88888894 Ry
     Harris-Foulkes estimate   =     -22.88888894 Ry
     estimated scf accuracy    <          2.0E-12 Ry

     iteration #  9     ecut=    80.00 Ry     beta=0.70
     Davidson diagonalization with overlap
     ethr =  1.00E-13,  avg # of iterations =  1.8

     total cpu time spent up to now is       10.4 secs

     total energy              =     -22.88888894 Ry
     Harris-Foulkes estimate   =     -22.88888894 Ry
     estimated scf accuracy    <          7.1E-15 Ry

     iteration # 10     ecut=    80.00 Ry     beta=0.70
     Davidson diagonalization with overlap
     ethr =  1.00E-13,  avg # of iterations =  1.0

     total cpu time spent up to now is       10.7 secs

     total energy              =     -22.88888894 Ry
     Harris-Foulkes estimate   =     -22.88888894 Ry
     estimated scf accuracy    <          7.0E-15 Ry

     iteration # 11     ecut=    80.00 Ry     beta=0.70
     Davidson diagonalization with overlap
     ethr =  1.00E-13,  avg # of iterations =  1.0

     total cpu time spent up to now is       11.0 secs

     End of self-consistent calculation

          k = 0.0000 0.0000 0.0000 (   941 PWs)   bands (ev):

    -7.9268  14.3103  14.3103  14.3103  20.0753  20.0753  20.0753  29.3559

          k =-0.1132 0.1132-0.1132 (   914 PWs)   bands (ev):

    -7.5672  12.2403  13.7377  13.7377  20.8272  20.8272  21.3166  29.5025

          k =-0.2264 0.2264-0.2264 (   914 PWs)   bands (ev):

    -6.4958   8.4666  12.6980  12.6980  22.1338  22.1338  22.8826  29.8824

          k =-0.3395 0.3395-0.3395 (   926 PWs)   bands (ev):

    -4.7417   4.5838  11.8516  11.8516  22.8778  22.8778  23.8298  30.2564

          k =-0.4527 0.4527-0.4527 (   899 PWs)   bands (ev):

    -2.4448   1.1532  11.4039  11.4039  23.0267  23.0267  24.2554  30.3936

          k = 0.0000 0.2264 0.0000 (   917 PWs)   bands (ev):

    -7.4476  12.7587  12.7587  13.2942  19.7566  22.0378  22.0378  29.1524

          k =-0.1132 0.3395-0.1132 (   915 PWs)   bands (ev):

    -6.6139   9.8035  11.6349  12.6595  20.3250  23.5883  23.6417  28.4629

          k =-0.2264 0.4527-0.2264 (   908 PWs)   bands (ev):

    -5.0871   6.0430  10.8750  11.5971  21.4917  24.4494  24.7157  28.4629

          k =-0.3395 0.5659-0.3395 (   904 PWs)   bands (ev):

    -2.9424   2.4700  10.6164  10.6330  22.1387  24.4090  25.2381  29.6276

          k = 0.5659-0.3395 0.5659 (   907 PWs)   bands (ev):

    -1.4936   0.6530   9.9997  10.9218  22.6028  23.9540  25.3293  30.5063

          k = 0.4527-0.2264 0.4527 (   908 PWs)   bands (ev):

    -3.7155   3.6190   9.8705  11.6754  23.1637  23.3179  24.9752  30.0218

          k = 0.3395-0.1132 0.3395 (   917 PWs)   bands (ev):

    -5.6711   7.3250  10.2815  12.7317  22.2812  23.3856  23.9841  29.3254

          k = 0.2264-0.0000 0.2264 (   915 PWs)   bands (ev):

    -6.9705  10.8257  11.3987  13.6888  21.0455  22.3389  22.6383  29.3925

          k = 0.0000 0.4527 0.0000 (   897 PWs)   bands (ev):

    -6.0218  10.4281  10.4281  10.6833  19.1126  25.5442  25.5442  26.0238

          k =-0.1132 0.5659-0.1132 (   906 PWs)   bands (ev):

    -4.7346   7.5515   9.6036   9.8331  19.6994  24.7683  26.9193  27.0178

          k =-0.2264 0.6791-0.2264 (   902 PWs)   bands (ev):

    -2.8049   4.2423   8.5028   9.3436  20.6542  25.8784  27.1658  27.7518

          k = 0.6791-0.2264 0.6791 (   912 PWs)   bands (ev):

    -0.6554   1.4949   7.3988   9.6794  21.2502  26.5634  27.9146  28.8369

          k = 0.5659-0.1132 0.5659 (   906 PWs)   bands (ev):

    -2.0671   3.2744   6.8229  10.5444  22.0870  25.4460  27.6656  30.0882

          k = 0.4527 0.0000 0.4527 (   909 PWs)   bands (ev):

    -4.1655   6.3590   7.1777  11.7327  23.0753  23.8241  26.2170  29.0133

          k = 0.0000 0.6791 0.0000 (   906 PWs)   bands (ev):

    -3.6923   7.1165   8.6574   8.6574  18.6759  22.2910  29.0632  29.0632

          k =-0.1132 0.7922-0.1132 (   910 PWs)   bands (ev):

    -2.0014   5.0155   7.2098   8.2728  19.3944  21.9562  29.9730  30.1916

          k = 0.7922-0.1132 0.7922 (   919 PWs)   bands (ev):

     0.1485   2.9158   5.2124   8.5110  20.0746  24.6332  29.4799  30.5251

          k = 0.6791 0.0000 0.6791 (   901 PWs)   bands (ev):

    -0.0013   3.1281   4.3155   9.3289  20.8833  27.8504  28.5718  30.3292

          k = 0.0000 0.9054 0.0000 (   926 PWs)   bands (ev):

    -0.5570   3.1775   7.7307   7.7307  18.8439  19.9361  31.6270  31.6270

          k = 0.9054 0.0000 0.9054 (   922 PWs)   bands (ev):

     1.3645   1.4646   6.4944   7.8150  19.4406  20.8623  31.4303  31.7698

          k =-0.2264 0.4527 0.0000 (   914 PWs)   bands (ev):

    -5.5528   8.4815   9.2176  11.8976  20.8900  24.5406  25.5188  27.2419

          k =-0.3395 0.5659-0.1132 (   905 PWs)   bands (ev):

    -3.8214   5.2319   8.4080  10.7688  22.1977  24.3784  26.9877  27.7004

          k = 0.5659-0.3395 0.7922 (   909 PWs)   bands (ev):

    -1.5770   1.9872   8.3180   9.8569  22.6719  24.2221  27.6006  29.5811

          k =-0.2264 0.6791 0.0000 (   904 PWs)   bands (ev):

    -3.2438   6.2865   7.5432   8.9283  20.5173  23.7223  27.4412  29.1357

          k = 0.6791-0.2264 0.9054 (   908 PWs)   bands (ev):

    -1.1768   3.7545   6.5033   8.0972  21.7118  24.9771  27.3289  30.0957

          k = 0.5659-0.1132 0.7922 (   911 PWs)   bands (ev):

     0.1339   2.2889   5.6625   8.4229  22.3314  26.0021  28.8146  29.3425

          k = 0.4527 0.0000 0.6791 (   905 PWs)   bands (ev):

    -1.9400   4.6206   5.6273   9.4919  23.2377  24.4192  27.9536  29.4109

          k = 0.7922-0.1132 1.0186 (   912 PWs)   bands (ev):

    -0.1673   3.3375   6.7268   6.9981  20.6610  21.6375  30.0931  31.2599

          k = 0.6791-0.0000 0.9054 (   917 PWs)   bands (ev):

     1.5684   2.1890   4.8117   7.3180  21.5107  24.5593  29.1951  30.0904

          k = 0.5659-0.1132 1.0186 (   905 PWs)   bands (ev):

     0.8483   3.1649   5.0882   6.4471  24.5076  24.6016  27.2600  29.1540

     highest occupied, lowest unoccupied level (ev):    14.3103   18.6759

!    total energy              =     -22.88888894 Ry
     Harris-Foulkes estimate   =     -22.88888894 Ry
     estimated scf accuracy    <          1.3E-17 Ry

     The total energy is the sum of the following terms:

     one-electron contribution =       8.63892376 Ry
     hartree contribution      =       1.85453083 Ry
     xc contribution           =      -7.18983134 Ry
     ewald contribution        =     -26.19251218 Ry

     convergence has been achieved in  11 iterations

     Forces acting on atoms (cartesian axes, Ry/au):

     atom    1 type  1   force =     0.00000000    0.00000000    0.00000000
     atom    2 type  1   force =     0.00000000    0.00000000    0.00000000

     Total force =     0.000000     Total SCF correction =     0.000000


     Computing stress (Cartesian axis) and pressure

          total   stress  (Ry/bohr**3)                   (kbar)     P=  153.74
   0.00104512   0.00000000   0.00000000        153.74      0.00      0.00
   0.00000000   0.00104512   0.00000000          0.00    153.74      0.00
   0.00000000   0.00000000   0.00104512          0.00      0.00    153.74


     number of scf cycles    =   2
     number of bfgs steps    =   1

     enthalpy old            =     -22.8893950137 Ry
     enthalpy new            =     -22.8888889369 Ry

     CASE: enthalpy_new > enthalpy_old

     new trust radius        =       0.0134209101 bohr
     new conv_thr            =            1.0E-15 Ry

     new unit-cell volume =     73.55673 a.u.^3 (    10.89998 Ang^3 )
     density =      3.65959 g/cm^3

CELL_PARAMETERS (alat=  6.70342551)
  -0.496097855  -0.000000000   0.496097855
  -0.000000000   0.496097855   0.496097855
  -0.496097855   0.496097855   0.000000000

ATOMIC_POSITIONS (crystal)
C       -0.000000000  -0.000000000   0.000000000
C        0.250000000   0.250000000   0.250000000



     Writing output data file c.save
     NEW-OLD atomic charge density approx. for the potential
     extrapolated charge    8.24970, renormalised to    8.00000

     total cpu time spent up to now is       11.1 secs

     per-process dynamical memory:    12.2 Mb

     Self-consistent Calculation

     iteration #  1     ecut=    80.00 Ry     beta=0.70
     Davidson diagonalization with overlap
     ethr =  1.00E-06,  avg # of iterations =  3.9

     total cpu time spent up to now is       11.9 secs

     total energy              =     -22.88915159 Ry
     Harris-Foulkes estimate   =     -23.06391991 Ry
     estimated scf accuracy    <       0.00038942 Ry

     iteration #  2     ecut=    80.00 Ry     beta=0.70
     Davidson diagonalization with overlap
     ethr =  4.87E-06,  avg # of iterations =  3.4

     total cpu time spent up to now is       12.6 secs

     total energy              =     -22.89007459 Ry
     Harris-Foulkes estimate   =     -22.89011272 Ry
     estimated scf accuracy    <       0.00013259 Ry

     iteration #  3     ecut=    80.00 Ry     beta=0.70
     Davidson diagonalization with overlap
     ethr =  1.66E-06,  avg # of iterations =  1.0

     total cpu time spent up to now is       13.0 secs

     total energy              =     -22.89004735 Ry
     Harris-Foulkes estimate   =     -22.89007666 Ry
     estimated scf accuracy    <       0.00005403 Ry

     iteration #  4     ecut=    80.00 Ry     beta=0.70
     Davidson diagonalization with overlap
     ethr =  6.75E-07,  avg # of iterations =  2.0

     total cpu time spent up to now is       13.4 secs

     total energy              =     -22.89005189 Ry
     Harris-Foulkes estimate   =     -22.89005234 Ry
     estimated scf accuracy    <       0.00000079 Ry

     iteration #  5     ecut=    80.00 Ry     beta=0.70
     Davidson diagonalization with overlap
     ethr =  9.82E-09,  avg # of iterations =  2.7

     total cpu time spent up to now is       14.0 secs

     total energy              =     -22.89005209 Ry
     Harris-Foulkes estimate   =     -22.89005212 Ry
     estimated scf accuracy    <       0.00000006 Ry

     iteration #  6     ecut=    80.00 Ry     beta=0.70
     Davidson diagonalization with overlap
     ethr =  8.10E-10,  avg # of iterations =  2.1

     total cpu time spent up to now is       14.5 secs

     total energy              =     -22.89005209 Ry
     Harris-Foulkes estimate   =     -22.89005210 Ry
     estimated scf accuracy    <          1.8E-09 Ry

     iteration #  7     ecut=    80.00 Ry     beta=0.70
     Davidson diagonalization with overlap
     ethr =  2.23E-11,  avg # of iterations =  2.4

     total cpu time spent up to now is       15.0 secs

     total energy              =     -22.89005210 Ry
     Harris-Foulkes estimate   =     -22.89005210 Ry
     estimated scf accuracy    <          1.0E-11 Ry

     iteration #  8     ecut=    80.00 Ry     beta=0.70
     Davidson diagonalization with overlap
     ethr =  1.28E-13,  avg # of iterations =  2.1

     total cpu time spent up to now is       15.5 secs

     total energy              =     -22.89005210 Ry
     Harris-Foulkes estimate   =     -22.89005210 Ry
     estimated scf accuracy    <          1.6E-12 Ry

     iteration #  9     ecut=    80.00 Ry     beta=0.70
     Davidson diagonalization with overlap
     ethr =  1.00E-13,  avg # of iterations =  1.1

     total cpu time spent up to now is       15.8 secs

     total energy              =     -22.89005210 Ry
     Harris-Foulkes estimate   =     -22.89005210 Ry
     estimated scf accuracy    <          5.1E-15 Ry

     iteration # 10     ecut=    80.00 Ry     beta=0.70
     Davidson diagonalization with overlap
     ethr =  1.00E-13,  avg # of iterations =  1.0

     total cpu time spent up to now is       16.1 secs

     total energy              =     -22.89005210 Ry
     Harris-Foulkes estimate   =     -22.89005210 Ry
     estimated scf accuracy    <          4.2E-15 Ry

     iteration # 11     ecut=    80.00 Ry     beta=0.70
     Davidson diagonalization with overlap
     ethr =  1.00E-13,  avg # of iterations =  1.0

     total cpu time spent up to now is       16.4 secs

     End of self-consistent calculation

          k = 0.0000 0.0000 0.0000 (   941 PWs)   bands (ev):

    -8.0806  13.7224  13.7224  13.7224  19.3956  19.3956  19.3956  28.0320

          k =-0.1120 0.1120-0.1120 (   914 PWs)   bands (ev):

    -7.7286  11.7034  13.1688  13.1688  20.1225  20.1225  20.5737  28.2245

          k =-0.2240 0.2240-0.2240 (   914 PWs)   bands (ev):

    -6.6799   8.0108  12.1593  12.1593  21.3950  21.3950  22.0244  28.7353

          k =-0.3360 0.3360-0.3360 (   926 PWs)   bands (ev):

    -4.9657   4.2110  11.3350  11.3350  22.1360  22.1360  22.8623  29.2715

          k =-0.4479 0.4479-0.4479 (   899 PWs)   bands (ev):

    -2.7385   0.8729  10.8983  10.8983  22.2978  22.2978  23.2256  29.5050

          k = 0.0000 0.2240 0.0000 (   917 PWs)   bands (ev):

    -7.6114  12.2239  12.2239  12.7067  19.0756  21.2905  21.2905  27.9377

          k =-0.1120 0.3360-0.1120 (   915 PWs)   bands (ev):

    -6.7954   9.3189  11.1326  12.0985  19.6234  22.7960  22.8159  27.4323

          k =-0.2240 0.4479-0.2240 (   908 PWs)   bands (ev):

    -5.3024   5.6367  10.3918  11.0666  20.7672  23.6469  23.7947  27.5316

          k =-0.3360 0.5599-0.3360 (   904 PWs)   bands (ev):

    -3.2133   2.1480  10.1143  10.1537  21.4182  23.6279  24.2393  28.7047

          k = 0.5599-0.3360 0.5599 (   907 PWs)   bands (ev):

    -1.8328   0.4066   9.5172  10.4320  21.8772  23.1926  24.3078  29.5700

          k = 0.4479-0.2240 0.4479 (   908 PWs)   bands (ev):

    -3.9644   3.2674   9.3953  11.1627  22.4051  22.5641  24.0051  29.0403

          k = 0.3360-0.1120 0.3360 (   917 PWs)   bands (ev):

    -5.8732   6.8906   9.8006  12.1879  21.5425  22.5876  23.1167  28.2670

          k = 0.2240-0.0000 0.2240 (   915 PWs)   bands (ev):

    -7.1444  10.3093  10.9012  13.1168  20.3388  21.5642  21.8518  28.2115

          k = 0.0000 0.4479 0.0000 (   897 PWs)   bands (ev):

    -6.2158   9.9613   9.9613  10.1206  18.4323  24.6873  24.6873  25.1815

          k =-0.1120 0.5599-0.1120 (   906 PWs)   bands (ev):

    -4.9568   7.0980   9.1586   9.3392  19.0044  24.0035  26.0260  26.0770

          k =-0.2240 0.6719-0.2240 (   902 PWs)   bands (ev):

    -3.0736   3.8655   8.0441   8.9039  19.9547  25.0842  26.2813  26.7237

          k = 0.6719-0.2240 0.6719 (   912 PWs)   bands (ev):

    -1.0102   1.2185   6.9699   9.2286  20.5503  25.7054  26.8765  27.9131

          k = 0.5599-0.1120 0.5599 (   906 PWs)   bands (ev):

    -2.3586   2.9268   6.4137  10.0674  21.3625  24.6153  26.6550  29.0411

          k = 0.4479 0.0000 0.4479 (   909 PWs)   bands (ev):

    -4.4017   5.9184   6.7848  11.2196  22.3009  23.0368  25.3182  27.9460

          k = 0.0000 0.6719 0.0000 (   906 PWs)   bands (ev):

    -3.9371   6.6211   8.2384   8.2384  18.0009  21.5888  28.0922  28.0922

          k =-0.1120 0.7839-0.1120 (   910 PWs)   bands (ev):

    -2.2854   4.5648   6.8311   7.8635  18.7122  21.2493  28.9753  29.1553

          k = 0.7839-0.1120 0.7839 (   919 PWs)   bands (ev):

    -0.2007   2.5253   4.8864   8.0942  19.3956  23.8372  28.5051  29.4410

          k = 0.6719 0.0000 0.6719 (   901 PWs)   bands (ev):

    -0.3577   2.7396   4.0180   8.8883  20.1906  26.9323  27.6166  29.2220

          k = 0.0000 0.8959 0.0000 (   926 PWs)   bands (ev):

    -0.8730   2.7735   7.3361   7.3361  18.1757  19.2673  30.5583  30.5583

          k = 0.8959 0.0000 0.8959 (   922 PWs)   bands (ev):

     0.9943   1.1029   6.1364   7.4178  18.7719  20.1577  30.3713  30.6771

          k =-0.2240 0.4479 0.0000 (   914 PWs)   bands (ev):

    -5.7573   8.0041   8.7771  11.3671  20.1698  23.7117  24.6564  26.3190

          k =-0.3360 0.5599-0.1120 (   905 PWs)   bands (ev):

    -4.0657   4.8368   7.9655  10.2780  21.4564  23.5779  26.0221  26.7856

          k = 0.5599-0.3360 0.7839 (   909 PWs)   bands (ev):

    -1.8895   1.6823   7.8647   9.4014  21.9680  23.3761  26.5829  28.6257

          k =-0.2240 0.6719 0.0000 (   904 PWs)   bands (ev):

    -3.4999   5.8215   7.1471   8.4964  19.8020  22.9986  26.4778  28.1559

          k = 0.6719-0.2240 0.8959 (   908 PWs)   bands (ev):

    -1.4873   3.3679   6.1044   7.7001  20.9919  24.2206  26.3360  29.0570

          k = 0.5599-0.1120 0.7839 (   911 PWs)   bands (ev):

    -0.2365   1.9720   5.2844   8.0109  21.6178  25.1491  27.8105  28.3058

          k = 0.4479 0.0000 0.6719 (   905 PWs)   bands (ev):

    -2.2314   4.2012   5.2778   9.0444  22.5068  23.6086  26.9431  28.3960

          k = 0.7839-0.1120 1.0079 (   912 PWs)   bands (ev):

    -0.4967   2.9184   6.3571   6.6328  19.9533  20.9319  29.0653  30.1931

          k = 0.6719-0.0000 0.8959 (   917 PWs)   bands (ev):

     1.1636   1.8062   4.5195   6.9367  20.8027  23.7722  28.2038  29.0370

          k = 0.5599-0.1120 1.0079 (   905 PWs)   bands (ev):

     0.4757   2.7402   4.7735   6.1048  23.7955  23.8136  26.2419  28.1460

     highest occupied, lowest unoccupied level (ev):    13.7224   18.0009

!    total energy              =     -22.89005210 Ry
     Harris-Foulkes estimate   =     -22.89005210 Ry
     estimated scf accuracy    <          2.8E-17 Ry

     The total energy is the sum of the following terms:

     one-electron contribution =       8.27810528 Ry
     hartree contribution      =       1.88490358 Ry
     xc contribution           =      -7.13595289 Ry
     ewald contribution        =     -25.91710806 Ry

     convergence has been achieved in  11 iterations

     Forces acting on atoms (cartesian axes, Ry/au):

     atom    1 type  1   force =    -0.00000000   -0.00000000   -0.00000000
     atom    2 type  1   force =     0.00000000    0.00000000    0.00000000

     Total force =     0.000000     Total SCF correction =     0.000000


     Computing stress (Cartesian axis) and pressure

          total   stress  (Ry/bohr**3)                   (kbar)     P=   -2.49
  -0.00001694  -0.00000000  -0.00000000         -2.49     -0.00     -0.00
  -0.00000000  -0.00001694   0.00000000         -0.00     -2.49      0.00
  -0.00000000  -0.00000000  -0.00001694         -0.00     -0.00     -2.49


     number of scf cycles    =   3
     number of bfgs steps    =   1

     enthalpy old            =     -22.8893950137 Ry
     enthalpy new            =     -22.8900520951 Ry

     CASE: enthalpy_new < enthalpy_old

     new trust radius        =       0.0003155908 bohr
     new conv_thr            =            1.0E-17 Ry

     new unit-cell volume =     73.51614 a.u.^3 (    10.89397 Ang^3 )
     density =      3.66161 g/cm^3

CELL_PARAMETERS (alat=  6.70342551)
  -0.496006580  -0.000000000   0.496006580
  -0.000000000   0.496006580   0.496006580
  -0.496006580   0.496006580   0.000000000

ATOMIC_POSITIONS (crystal)
C        0.000000000  -0.000000000   0.000000000
C        0.250000000   0.250000000   0.250000000



     Writing output data file c.save
     NEW-OLD atomic charge density approx. for the potential
     extrapolated charge    7.99558, renormalised to    8.00000

     total cpu time spent up to now is       16.5 secs

     per-process dynamical memory:    13.7 Mb

     Self-consistent Calculation

     iteration #  1     ecut=    80.00 Ry     beta=0.70
     Davidson diagonalization with overlap
     ethr =  1.00E-06,  avg # of iterations =  1.0

     Threshold (ethr) on eigenvalues was too large:
     Diagonalizing with lowered threshold

     Davidson diagonalization with overlap
     ethr =  1.79E-09,  avg # of iterations =  2.0

     total cpu time spent up to now is       17.2 secs

     total energy              =     -22.89005146 Ry
     Harris-Foulkes estimate   =     -22.88698083 Ry
     estimated scf accuracy    <       0.00000013 Ry

     iteration #  2     ecut=    80.00 Ry     beta=0.70
     Davidson diagonalization with overlap
     ethr =  1.67E-09,  avg # of iterations =  3.3

     total cpu time spent up to now is       17.9 secs

     total energy              =     -22.89005175 Ry
     Harris-Foulkes estimate   =     -22.89005176 Ry
     estimated scf accuracy    <       0.00000004 Ry

     iteration #  3     ecut=    80.00 Ry     beta=0.70
     Davidson diagonalization with overlap
     ethr =  4.75E-10,  avg # of iterations =  1.0

     total cpu time spent up to now is       18.2 secs

     total energy              =     -22.89005174 Ry
     Harris-Foulkes estimate   =     -22.89005175 Ry
     estimated scf accuracy    <       0.00000001 Ry

     iteration #  4     ecut=    80.00 Ry     beta=0.70
     Davidson diagonalization with overlap
     ethr =  1.86E-10,  avg # of iterations =  2.0

     total cpu time spent up to now is       18.7 secs

     total energy              =     -22.89005174 Ry
     Harris-Foulkes estimate   =     -22.89005174 Ry
     estimated scf accuracy    <          1.7E-10 Ry

     iteration #  5     ecut=    80.00 Ry     beta=0.70
     Davidson diagonalization with overlap
     ethr =  2.17E-12,  avg # of iterations =  2.7

     total cpu time spent up to now is       19.3 secs

     total energy              =     -22.89005174 Ry
     Harris-Foulkes estimate   =     -22.89005174 Ry
     estimated scf accuracy    <          2.0E-11 Ry

     iteration #  6     ecut=    80.00 Ry     beta=0.70
     Davidson diagonalization with overlap
     ethr =  2.55E-13,  avg # of iterations =  2.1

     total cpu time spent up to now is       19.7 secs

     total energy              =     -22.89005174 Ry
     Harris-Foulkes estimate   =     -22.89005174 Ry
     estimated scf accuracy    <          3.9E-13 Ry

     iteration #  7     ecut=    80.00 Ry     beta=0.70
     Davidson diagonalization with overlap
     ethr =  1.00E-13,  avg # of iterations =  1.0

     total cpu time spent up to now is       20.1 secs

     total energy              =     -22.89005174 Ry
     Harris-Foulkes estimate   =     -22.89005174 Ry
     estimated scf accuracy    <          2.9E-15 Ry

     iteration #  8     ecut=    80.00 Ry     beta=0.70
     Davidson diagonalization with overlap
     ethr =  1.00E-13,  avg # of iterations =  1.0

     total cpu time spent up to now is       20.4 secs

     total energy              =     -22.89005174 Ry
     Harris-Foulkes estimate   =     -22.89005174 Ry
     estimated scf accuracy    <          2.8E-16 Ry

     iteration #  9     ecut=    80.00 Ry     beta=0.70
     Davidson diagonalization with overlap
     ethr =  1.00E-13,  avg # of iterations =  1.0

     total cpu time spent up to now is       20.7 secs

     End of self-consistent calculation

          k = 0.0000 0.0000 0.0000 (   941 PWs)   bands (ev):

    -8.0780  13.7325  13.7325  13.7325  19.4073  19.4073  19.4073  28.0548

          k =-0.1120 0.1120-0.1120 (   914 PWs)   bands (ev):

    -7.7258  11.7126  13.1786  13.1786  20.1347  20.1347  20.5865  28.2465

          k =-0.2240 0.2240-0.2240 (   914 PWs)   bands (ev):

    -6.6768   8.0187  12.1685  12.1685  21.4077  21.4077  22.0392  28.7552

          k =-0.3360 0.3360-0.3360 (   926 PWs)   bands (ev):

    -4.9618   4.2174  11.3439  11.3439  22.1488  22.1488  22.8789  29.2885

          k =-0.4480 0.4480-0.4480 (   899 PWs)   bands (ev):

    -2.7334   0.8777  10.9070  10.9070  22.3104  22.3104  23.2434  29.5203

          k = 0.0000 0.2240 0.0000 (   917 PWs)   bands (ev):

    -7.6086  12.2331  12.2331  12.7168  19.0874  21.3033  21.3033  27.9588

          k =-0.1120 0.3360-0.1120 (   915 PWs)   bands (ev):

    -6.7923   9.3272  11.1412  12.1082  19.6354  22.8096  22.8302  27.4502

          k =-0.2240 0.4480-0.2240 (   908 PWs)   bands (ev):

    -5.2987   5.6437  10.4001  11.0757  20.7797  23.6608  23.8106  27.5477

          k =-0.3360 0.5600-0.3360 (   904 PWs)   bands (ev):

    -3.2086   2.1535  10.1229  10.1620  21.4307  23.6414  24.2565  28.7206

          k = 0.5600-0.3360 0.5600 (   907 PWs)   bands (ev):

    -1.8270   0.4109   9.5255  10.4404  21.8898  23.2057  24.3254  29.5862

          k = 0.4480-0.2240 0.4480 (   908 PWs)   bands (ev):

    -3.9601   3.2735   9.4035  11.1715  22.4182  22.5771  24.0218  29.0572

          k = 0.3360-0.1120 0.3360 (   917 PWs)   bands (ev):

    -5.8698   6.8981   9.8089  12.1972  21.5553  22.6014  23.1316  28.2853

          k = 0.2240-0.0000 0.2240 (   915 PWs)   bands (ev):

    -7.1414  10.3182  10.9098  13.1266  20.3510  21.5775  21.8653  28.2319

          k = 0.0000 0.4480 0.0000 (   897 PWs)   bands (ev):

    -6.2125   9.9693   9.9693  10.1303  18.4440  24.7021  24.7021  25.1962

          k =-0.1120 0.5600-0.1120 (   906 PWs)   bands (ev):

    -4.9530   7.1058   9.1662   9.3477  19.0164  24.0167  26.0414  26.0932

          k =-0.2240 0.6720-0.2240 (   902 PWs)   bands (ev):

    -3.0689   3.8720   8.0519   8.9115  19.9668  25.0980  26.2966  26.7413

          k = 0.6720-0.2240 0.6720 (   912 PWs)   bands (ev):

    -1.0041   1.2233   6.9773   9.2363  20.5624  25.7202  26.8945  27.9289

          k = 0.5600-0.1120 0.5600 (   906 PWs)   bands (ev):

    -2.3536   2.9328   6.4207  10.0756  21.3750  24.6297  26.6724  29.0591

          k = 0.4480 0.0000 0.4480 (   909 PWs)   bands (ev):

    -4.3977   5.9260   6.7915  11.2284  22.3142  23.0503  25.3337  27.9643

          k = 0.0000 0.6720 0.0000 (   906 PWs)   bands (ev):

    -3.9329   6.6297   8.2456   8.2456  18.0125  21.6010  28.1089  28.1089

          k =-0.1120 0.7840-0.1120 (   910 PWs)   bands (ev):

    -2.2805   4.5725   6.8376   7.8705  18.7240  21.2615  28.9925  29.1731

          k = 0.7840-0.1120 0.7840 (   919 PWs)   bands (ev):

    -0.1947   2.5320   4.8920   8.1013  19.4073  23.8510  28.5219  29.4596

          k = 0.6720 0.0000 0.6720 (   901 PWs)   bands (ev):

    -0.3516   2.7463   4.0231   8.8958  20.2026  26.9482  27.6332  29.2410

          k = 0.0000 0.8960 0.0000 (   926 PWs)   bands (ev):

    -0.8676   2.7805   7.3429   7.3429  18.1872  19.2788  30.5767  30.5767

          k = 0.8960 0.0000 0.8960 (   922 PWs)   bands (ev):

     1.0006   1.1091   6.1425   7.4246  18.7834  20.1699  30.3895  30.6959

          k =-0.2240 0.4480 0.0000 (   914 PWs)   bands (ev):

    -5.7538   8.0123   8.7846  11.3763  20.1822  23.7260  24.6713  26.3349

          k =-0.3360 0.5600-0.1120 (   905 PWs)   bands (ev):

    -4.0615   4.8436   7.9731  10.2864  21.4692  23.5917  26.0388  26.8013

          k = 0.5600-0.3360 0.7840 (   909 PWs)   bands (ev):

    -1.8841   1.6875   7.8725   9.4093  21.9801  23.3907  26.6004  28.6422

          k =-0.2240 0.6720 0.0000 (   904 PWs)   bands (ev):

    -3.4955   5.8295   7.1539   8.5039  19.8143  23.0111  26.4944  28.1727

          k = 0.6720-0.2240 0.8960 (   908 PWs)   bands (ev):

    -1.4820   3.3746   6.1113   7.7070  21.0044  24.2337  26.3531  29.0748

          k = 0.5600-0.1120 0.7840 (   911 PWs)   bands (ev):

    -0.2301   1.9775   5.2909   8.0180  21.6301  25.1638  27.8278  28.3236

          k = 0.4480 0.0000 0.6720 (   905 PWs)   bands (ev):

    -2.2264   4.2084   5.2838   9.0521  22.5194  23.6226  26.9605  28.4135

          k = 0.7840-0.1120 1.0081 (   912 PWs)   bands (ev):

    -0.4910   2.9256   6.3634   6.6390  19.9655  20.9441  29.0830  30.2114

          k = 0.6720-0.0000 0.8960 (   917 PWs)   bands (ev):

     1.1706   1.8128   4.5245   6.9432  20.8149  23.7858  28.2209  29.0551

          k = 0.5600-0.1120 1.0081 (   905 PWs)   bands (ev):

     0.4821   2.7475   4.7789   6.1107  23.8078  23.8272  26.2594  28.1634

     highest occupied, lowest unoccupied level (ev):    13.7325   18.0125

!    total energy              =     -22.89005174 Ry
     Harris-Foulkes estimate   =     -22.89005174 Ry
     estimated scf accuracy    <          5.9E-18 Ry

     The total energy is the sum of the following terms:

     one-electron contribution =       8.28433838 Ry
     hartree contribution      =       1.88437021 Ry
     xc contribution           =      -7.13688302 Ry
     ewald contribution        =     -25.92187731 Ry

     convergence has been achieved in   9 iterations

     Forces acting on atoms (cartesian axes, Ry/au):

     atom    1 type  1   force =    -0.00000000    0.00000000   -0.00000000
     atom    2 type  1   force =     0.00000000   -0.00000000    0.00000000

     Total force =     0.000000     Total SCF correction =     0.000000


     Computing stress (Cartesian axis) and pressure

          total   stress  (Ry/bohr**3)                   (kbar)     P=    0.08
   0.00000054   0.00000000   0.00000000          0.08      0.00      0.00
  -0.00000000   0.00000054  -0.00000000         -0.00      0.08     -0.00
   0.00000000  -0.00000000   0.00000054          0.00     -0.00      0.08


     bfgs converged in   4 scf cycles and   2 bfgs steps
     (criteria: energy <  1.0E-04 Ry, force <  1.0E-03Ry/Bohr, cell <  5.0E-01kbar)

     End of BFGS Geometry Optimization

     Final enthalpy =     -22.8900517416 Ry
Begin final coordinates
     new unit-cell volume =     73.51614 a.u.^3 (    10.89397 Ang^3 )
     density =      3.66161 g/cm^3

CELL_PARAMETERS (alat=  6.70342551)
  -0.496006580  -0.000000000   0.496006580
  -0.000000000   0.496006580   0.496006580
  -0.496006580   0.496006580   0.000000000

ATOMIC_POSITIONS (crystal)
C        0.000000000  -0.000000000   0.000000000
C        0.250000000   0.250000000   0.250000000
End final coordinates



     A final scf calculation at the relaxed structure.
     The G-vectors are recalculated for the final unit cell
     Results may differ from those at the preceding step.
 
     Parallelization info
     --------------------
     sticks:   dense  smooth     PW     G-vecs:    dense   smooth      PW
     Min          12      12      4                  177      177      30
     Max          13      13      5                  179      179      34
     Sum         499     499    163                 7119     7119    1291
 


     bravais-lattice index     =            2
     lattice parameter (alat)  =       6.7034  a.u.
     unit-cell volume          =      73.5161 (a.u.)^3
     number of atoms/cell      =            2
     number of atomic types    =            1
     number of electrons       =         8.00
     number of Kohn-Sham states=            8
     kinetic-energy cutoff     =      80.0000  Ry
     charge density cutoff     =     320.0000  Ry
     convergence threshold     =      1.0E-17
     mixing beta               =       0.7000
     number of iterations used =            8  local-TF  mixing
     Exchange-correlation      = PZ ( 1  1  0  0 0 0)

     celldm(1)=   6.703426  celldm(2)=   0.000000  celldm(3)=   0.000000
     celldm(4)=   0.000000  celldm(5)=   0.000000  celldm(6)=   0.000000

     crystal axes: (cart. coord. in units of alat)
               a(1) = (  -0.496007  -0.000000   0.496007 )  
               a(2) = (  -0.000000   0.496007   0.496007 )  
               a(3) = (  -0.496007   0.496007   0.000000 )  

     reciprocal axes: (cart. coord. in units 2 pi/alat)
               b(1) = ( -1.008051 -1.008051  1.008051 )  
               b(2) = (  1.008051  1.008051  1.008051 )  
               b(3) = ( -1.008051  1.008051 -1.008051 )  


     PseudoPot. # 1 for  C read from file:
     ../C.pz-mt.fhi.UPF
     MD5 check sum: b7c38bc33a0cf75f44be89b84470f298
     Pseudo is Norm-conserving, Zval =  4.0
     Generated using FHI98PP, converted with fhi2upf.x v.5.0.2
     Using radial grid of  461 points,  2 beta functions with: 
                l(1) =   0
                l(2) =   1

     atomic species   valence    mass     pseudopotential
        C              4.00    12.01100      C( 1.00)

     24 Sym. Ops. (no inversion) found
          (note: 24 additional sym.ops. were found but ignored
           their fractional translations are incommensurate with FFT grid)


   Cartesian axes

     site n.     atom                  positions (alat units)
         1           C   tau(   1) = (  -0.0000000  -0.0000000  -0.0000000  )
         2           C   tau(   2) = (  -0.2480033   0.2480033   0.2480033  )

     number of k points=    35
                       cart. coord. in units 2pi/alat
        k(    1) = (   0.0000000   0.0000000   0.0000000), wk =   0.0027435
        k(    2) = (  -0.1120057   0.1120057  -0.1120057), wk =   0.0219479
        k(    3) = (  -0.2240114   0.2240114  -0.2240114), wk =   0.0219479
        k(    4) = (  -0.3360170   0.3360170  -0.3360170), wk =   0.0219479
        k(    5) = (  -0.4480227   0.4480227  -0.4480227), wk =   0.0219479
        k(    6) = (   0.0000000   0.2240114   0.0000000), wk =   0.0164609
        k(    7) = (  -0.1120057   0.3360170  -0.1120057), wk =   0.0658436
        k(    8) = (  -0.2240114   0.4480227  -0.2240114), wk =   0.0658436
        k(    9) = (  -0.3360170   0.5600284  -0.3360170), wk =   0.0658436
        k(   10) = (   0.5600284  -0.3360170   0.5600284), wk =   0.0658436
        k(   11) = (   0.4480227  -0.2240114   0.4480227), wk =   0.0658436
        k(   12) = (   0.3360170  -0.1120057   0.3360170), wk =   0.0658436
        k(   13) = (   0.2240114  -0.0000000   0.2240114), wk =   0.0329218
        k(   14) = (   0.0000000   0.4480227   0.0000000), wk =   0.0164609
        k(   15) = (  -0.1120057   0.5600284  -0.1120057), wk =   0.0658436
        k(   16) = (  -0.2240114   0.6720341  -0.2240114), wk =   0.0658436
        k(   17) = (   0.6720341  -0.2240114   0.6720341), wk =   0.0658436
        k(   18) = (   0.5600284  -0.1120057   0.5600284), wk =   0.0658436
        k(   19) = (   0.4480227   0.0000000   0.4480227), wk =   0.0329218
        k(   20) = (   0.0000000   0.6720341   0.0000000), wk =   0.0164609
        k(   21) = (  -0.1120057   0.7840398  -0.1120057), wk =   0.0658436
        k(   22) = (   0.7840398  -0.1120057   0.7840398), wk =   0.0658436
        k(   23) = (   0.6720341   0.0000000   0.6720341), wk =   0.0329218
        k(   24) = (   0.0000000   0.8960455   0.0000000), wk =   0.0164609
        k(   25) = (   0.8960455   0.0000000   0.8960455), wk =   0.0329218
        k(   26) = (  -0.2240114   0.4480227   0.0000000), wk =   0.0658436
        k(   27) = (  -0.3360170   0.5600284  -0.1120057), wk =   0.1316872
        k(   28) = (   0.5600284  -0.3360170   0.7840398), wk =   0.1316872
        k(   29) = (  -0.2240114   0.6720341   0.0000000), wk =   0.0658436
        k(   30) = (   0.6720341  -0.2240114   0.8960455), wk =   0.1316872
        k(   31) = (   0.5600284  -0.1120057   0.7840398), wk =   0.1316872
        k(   32) = (   0.4480227   0.0000000   0.6720341), wk =   0.0658436
        k(   33) = (   0.7840398  -0.1120057   1.0080511), wk =   0.0658436
        k(   34) = (   0.6720341  -0.0000000   0.8960455), wk =   0.0658436
        k(   35) = (   0.5600284  -0.1120057   1.0080511), wk =   0.0658436

     Dense  grid:     7119 G-vectors     FFT dimensions: (  27,  27,  27)

     Estimated max dynamical RAM per process >       0.30MB

     Estimated total allocated dynamical RAM >      11.98MB
     Message from routine sym_rho_init:
     some processors have no G-vectors for symmetrization

     Initial potential from superposition of free atoms

     starting charge    7.99993, renormalised to    8.00000
     Starting wfc are   18 randomized atomic wfcs

     Writing output data file c.save

     total cpu time spent up to now is       21.0 secs

     per-process dynamical memory:    14.1 Mb

     Self-consistent Calculation

     iteration #  1     ecut=    80.00 Ry     beta=0.70
     Davidson diagonalization with overlap
     ethr =  1.00E-06,  avg # of iterations =  5.7

     total cpu time spent up to now is       22.1 secs

     total energy              =     -22.89748149 Ry
     Harris-Foulkes estimate   =     -22.95073722 Ry
     estimated scf accuracy    <       0.13705442 Ry

     iteration #  2     ecut=    80.00 Ry     beta=0.70
     Davidson diagonalization with overlap
     ethr =  1.71E-03,  avg # of iterations =  1.3

     total cpu time spent up to now is       22.4 secs

     total energy              =     -22.88665369 Ry
     Harris-Foulkes estimate   =     -22.90172986 Ry
     estimated scf accuracy    <       0.02780115 Ry

     iteration #  3     ecut=    80.00 Ry     beta=0.70
     Davidson diagonalization with overlap
     ethr =  3.48E-04,  avg # of iterations =  2.1

     total cpu time spent up to now is       22.9 secs

     total energy              =     -22.88997434 Ry
     Harris-Foulkes estimate   =     -22.88993055 Ry
     estimated scf accuracy    <       0.00013056 Ry

     iteration #  4     ecut=    80.00 Ry     beta=0.70
     Davidson diagonalization with overlap
     ethr =  1.63E-06,  avg # of iterations =  2.1

     total cpu time spent up to now is       23.4 secs

     total energy              =     -22.89000036 Ry
     Harris-Foulkes estimate   =     -22.89000580 Ry
     estimated scf accuracy    <       0.00001088 Ry

     iteration #  5     ecut=    80.00 Ry     beta=0.70
     Davidson diagonalization with overlap
     ethr =  1.36E-07,  avg # of iterations =  2.1

     total cpu time spent up to now is       23.9 secs

     total energy              =     -22.89000156 Ry
     Harris-Foulkes estimate   =     -22.89000169 Ry
     estimated scf accuracy    <       0.00000031 Ry

     iteration #  6     ecut=    80.00 Ry     beta=0.70
     Davidson diagonalization with overlap
     ethr =  3.93E-09,  avg # of iterations =  2.0

     total cpu time spent up to now is       24.3 secs

     total energy              =     -22.89000158 Ry
     Harris-Foulkes estimate   =     -22.89000159 Ry
     estimated scf accuracy    <       0.00000001 Ry

     iteration #  7     ecut=    80.00 Ry     beta=0.70
     Davidson diagonalization with overlap
     ethr =  1.38E-10,  avg # of iterations =  2.7

     total cpu time spent up to now is       24.9 secs

     total energy              =     -22.89000158 Ry
     Harris-Foulkes estimate   =     -22.89000158 Ry
     estimated scf accuracy    <          2.5E-11 Ry

     iteration #  8     ecut=    80.00 Ry     beta=0.70
     Davidson diagonalization with overlap
     ethr =  3.18E-13,  avg # of iterations =  2.6

     total cpu time spent up to now is       25.5 secs

     total energy              =     -22.89000158 Ry
     Harris-Foulkes estimate   =     -22.89000158 Ry
     estimated scf accuracy    <          6.0E-12 Ry

     iteration #  9     ecut=    80.00 Ry     beta=0.70
     Davidson diagonalization with overlap
     ethr =  1.00E-13,  avg # of iterations =  2.0

     total cpu time spent up to now is       25.9 secs

     total energy              =     -22.89000158 Ry
     Harris-Foulkes estimate   =     -22.89000158 Ry
     estimated scf accuracy    <          1.7E-13 Ry

     iteration # 10     ecut=    80.00 Ry     beta=0.70
     Davidson diagonalization with overlap
     ethr =  1.00E-13,  avg # of iterations =  1.0

     total cpu time spent up to now is       26.3 secs

     total energy              =     -22.89000158 Ry
     Harris-Foulkes estimate   =     -22.89000158 Ry
     estimated scf accuracy    <          3.8E-15 Ry

     iteration # 11     ecut=    80.00 Ry     beta=0.70
     Davidson diagonalization with overlap
     ethr =  1.00E-13,  avg # of iterations =  1.0

     total cpu time spent up to now is       26.6 secs

     total energy              =     -22.89000158 Ry
     Harris-Foulkes estimate   =     -22.89000158 Ry
     estimated scf accuracy    <          6.2E-16 Ry

     iteration # 12     ecut=    80.00 Ry     beta=0.70
     Davidson diagonalization with overlap
     ethr =  1.00E-13,  avg # of iterations =  1.0

     total cpu time spent up to now is       26.9 secs

     End of self-consistent calculation

          k = 0.0000 0.0000 0.0000 (   893 PWs)   bands (ev):

    -8.0780  13.7329  13.7329  13.7329  19.4076  19.4076  19.4076  28.0547

          k =-0.1120 0.1120-0.1120 (   905 PWs)   bands (ev):

    -7.7258  11.7126  13.1786  13.1786  20.1347  20.1347  20.5865  28.2465

          k =-0.2240 0.2240-0.2240 (   896 PWs)   bands (ev):

    -6.6768   8.0188  12.1685  12.1685  21.4078  21.4078  22.0395  28.7553

          k =-0.3360 0.3360-0.3360 (   896 PWs)   bands (ev):

    -4.9618   4.2175  11.3441  11.3441  22.1490  22.1490  22.8790  29.2889

          k =-0.4480 0.4480-0.4480 (   884 PWs)   bands (ev):

    -2.7334   0.8778  10.9071  10.9071  22.3104  22.3104  23.2433  29.5205

          k = 0.0000 0.2240 0.0000 (   889 PWs)   bands (ev):

    -7.6086  12.2332  12.2332  12.7168  19.0876  21.3038  21.3038  27.9587

          k =-0.1120 0.3360-0.1120 (   897 PWs)   bands (ev):

    -6.7923   9.3273  11.1413  12.1083  19.6356  22.8098  22.8303  27.4502

          k =-0.2240 0.4480-0.2240 (   892 PWs)   bands (ev):

    -5.2987   5.6437  10.4002  11.0758  20.7798  23.6609  23.8107  27.5477

          k =-0.3360 0.5600-0.3360 (   894 PWs)   bands (ev):

    -3.2086   2.1536  10.1229  10.1620  21.4307  23.6415  24.2565  28.7206

          k = 0.5600-0.3360 0.5600 (   877 PWs)   bands (ev):

    -1.8270   0.4110   9.5256  10.4406  21.8900  23.2059  24.3254  29.5865

          k = 0.4480-0.2240 0.4480 (   887 PWs)   bands (ev):

    -3.9601   3.2735   9.4037  11.1717  22.4183  22.5773  24.0218  29.0574

          k = 0.3360-0.1120 0.3360 (   888 PWs)   bands (ev):

    -5.8698   6.8983   9.8090  12.1973  21.5554  22.6017  23.1320  28.2855

          k = 0.2240-0.0000 0.2240 (   907 PWs)   bands (ev):

    -7.1415  10.3182  10.9099  13.1266  20.3510  21.5776  21.8654  28.2319

          k = 0.0000 0.4480 0.0000 (   889 PWs)   bands (ev):

    -6.2125   9.9693   9.9693  10.1303  18.4439  24.7022  24.7022  25.1962

          k =-0.1120 0.5600-0.1120 (   880 PWs)   bands (ev):

    -4.9530   7.1060   9.1664   9.3478  19.0165  24.0168  26.0418  26.0933

          k =-0.2240 0.6720-0.2240 (   891 PWs)   bands (ev):

    -3.0689   3.8720   8.0520   8.9115  19.9668  25.0980  26.2966  26.7413

          k = 0.6720-0.2240 0.6720 (   883 PWs)   bands (ev):

    -1.0040   1.2234   6.9774   9.2364  20.5625  25.7206  26.8946  27.9292

          k = 0.5600-0.1120 0.5600 (   895 PWs)   bands (ev):

    -2.3536   2.9328   6.4207  10.0757  21.3751  24.6297  26.6725  29.0592

          k = 0.4480 0.0000 0.4480 (   883 PWs)   bands (ev):

    -4.3977   5.9260   6.7917  11.2285  22.3145  23.0505  25.3341  27.9644

          k = 0.0000 0.6720 0.0000 (   866 PWs)   bands (ev):

    -3.9329   6.6298   8.2458   8.2458  18.0126  21.6010  28.1096  28.1096

          k =-0.1120 0.7840-0.1120 (   895 PWs)   bands (ev):

    -2.2805   4.5725   6.8377   7.8705  18.7240  21.2615  28.9926  29.1734

          k = 0.7840-0.1120 0.7840 (   888 PWs)   bands (ev):

    -0.1947   2.5321   4.8921   8.1016  19.4073  23.8510  28.5224  29.4599

          k = 0.6720 0.0000 0.6720 (   893 PWs)   bands (ev):

    -0.3516   2.7463   4.0231   8.8960  20.2026  26.9481  27.6332  29.2411

          k = 0.0000 0.8960 0.0000 (   886 PWs)   bands (ev):

    -0.8675   2.7805   7.3430   7.3430  18.1872  19.2788  30.5775  30.5775

          k = 0.8960 0.0000 0.8960 (   892 PWs)   bands (ev):

     1.0007   1.1091   6.1426   7.4248  18.7835  20.1699  30.3901  30.6962

          k =-0.2240 0.4480 0.0000 (   889 PWs)   bands (ev):

    -5.7538   8.0125   8.7847  11.3764  20.1824  23.7262  24.6714  26.3350

          k =-0.3360 0.5600-0.1120 (   888 PWs)   bands (ev):

    -4.0615   4.8436   7.9731  10.2865  21.4693  23.5919  26.0389  26.8014

          k = 0.5600-0.3360 0.7840 (   891 PWs)   bands (ev):

    -1.8841   1.6876   7.8726   9.4093  21.9802  23.3908  26.6004  28.6424

          k =-0.2240 0.6720 0.0000 (   883 PWs)   bands (ev):

    -3.4955   5.8296   7.1540   8.5039  19.8143  23.0112  26.4946  28.1731

          k = 0.6720-0.2240 0.8960 (   881 PWs)   bands (ev):

    -1.4819   3.3747   6.1114   7.7071  21.0045  24.2338  26.3533  29.0752

          k = 0.5600-0.1120 0.7840 (   885 PWs)   bands (ev):

    -0.2301   1.9776   5.2910   8.0181  21.6302  25.1640  27.8280  28.3238

          k = 0.4480 0.0000 0.6720 (   891 PWs)   bands (ev):

    -2.2264   4.2084   5.2839   9.0522  22.5195  23.6227  26.9605  28.4137

          k = 0.7840-0.1120 1.0081 (   882 PWs)   bands (ev):

    -0.4909   2.9256   6.3636   6.6392  19.9656  20.9442  29.0833  30.2119

          k = 0.6720-0.0000 0.8960 (   889 PWs)   bands (ev):

     1.1706   1.8128   4.5247   6.9433  20.8150  23.7859  28.2212  29.0553

          k = 0.5600-0.1120 1.0081 (   895 PWs)   bands (ev):

     0.4821   2.7475   4.7789   6.1108  23.8078  23.8272  26.2594  28.1634

     highest occupied, lowest unoccupied level (ev):    13.7329   18.0126

!    total energy              =     -22.89000158 Ry
     Harris-Foulkes estimate   =     -22.89000158 Ry
     estimated scf accuracy    <          2.8E-18 Ry

     The total energy is the sum of the following terms:

     one-electron contribution =       8.28439353 Ry
     hartree contribution      =       1.88435044 Ry
     xc contribution           =      -7.13686824 Ry
     ewald contribution        =     -25.92187731 Ry

     convergence has been achieved in  12 iterations

     Forces acting on atoms (cartesian axes, Ry/au):

     atom    1 type  1   force =     0.00000000    0.00000000    0.00000000
     atom    2 type  1   force =    -0.00000000   -0.00000000   -0.00000000

     Total force =     0.000000     Total SCF correction =     0.000000


     Computing stress (Cartesian axis) and pressure

          total   stress  (Ry/bohr**3)                   (kbar)     P=    0.04
   0.00000029  -0.00000000  -0.00000000          0.04     -0.00     -0.00
  -0.00000000   0.00000029   0.00000000         -0.00      0.04      0.00
  -0.00000000   0.00000000   0.00000029         -0.00      0.00      0.04


     Writing output data file c.save
 
     init_run     :      0.50s CPU      0.52s WALL (       2 calls)
     electrons    :     25.29s CPU     25.85s WALL (       5 calls)
     update_pot   :      0.02s CPU      0.02s WALL (       3 calls)
     forces       :      0.04s CPU      0.04s WALL (       5 calls)
     stress       :      0.05s CPU      0.05s WALL (       5 calls)

     Called by init_run:
     wfcinit      :      0.45s CPU      0.46s WALL (       2 calls)
     potinit      :      0.01s CPU      0.01s WALL (       2 calls)

     Called by electrons:
     c_bands      :     24.33s CPU     24.79s WALL (      55 calls)
     sum_band     :      0.82s CPU      0.87s WALL (      55 calls)
     v_of_rho     :      0.02s CPU      0.02s WALL (      59 calls)
     mix_rho      :      0.09s CPU      0.10s WALL (      55 calls)

     Called by c_bands:
     init_us_2    :      0.04s CPU      0.04s WALL (    4270 calls)
     cegterg      :     24.15s CPU     24.62s WALL (    1925 calls)

     Called by sum_band:

     Called by *egterg:
     h_psi        :      4.69s CPU      4.85s WALL (    5862 calls)
     g_psi        :      0.01s CPU      0.01s WALL (    3867 calls)
     cdiaghg      :     13.96s CPU     14.10s WALL (    5652 calls)

     Called by h_psi:
     h_psi:pot    :      4.68s CPU      4.84s WALL (    5862 calls)
     h_psi:calbec :      0.25s CPU      0.26s WALL (    5862 calls)
     vloc_psi     :      4.35s CPU      4.50s WALL (    5862 calls)
     add_vuspsi   :      0.05s CPU      0.06s WALL (    5862 calls)

     General routines
     calbec       :      0.27s CPU      0.29s WALL (    6737 calls)
     fft          :      0.03s CPU      0.03s WALL (     261 calls)
     ffts         :      0.04s CPU      0.04s WALL (     593 calls)
     fftw         :      4.79s CPU      4.96s WALL (   96806 calls)
 
     Parallel routines
     fft_scatter  :      3.71s CPU      3.86s WALL (   97660 calls)
 
     PWSCF        :    26.35s CPU        27.58s WALL

 
   This run was terminated on:  11:27:56   8Dec2020            

=------------------------------------------------------------------------------=
   JOB DONE.
=------------------------------------------------------------------------------=
