
     Program PWSCF v.6.1 (svn rev. 13369) starts on 17Dec2020 at 12:12: 2 

     This program is part of the open-source Quantum ESPRESSO suite
     for quantum simulation of materials; please cite
         "P. Giannozzi et al., J. Phys.:Condens. Matter 21 395502 (2009);
          URL http://www.quantum-espresso.org", 
     in publications or presentations arising from this work. More details at
     http://www.quantum-espresso.org/quote

     Parallel version (MPI & OpenMP), running on      40 processor cores
     Number of MPI processes:                40
     Threads/MPI process:                     1
     R & G space division:  proc/nbgrp/npool/nimage =      40
     Waiting for input...
     Reading input from standard input

     Current dimensions of program PWSCF are:
     Max number of different atomic species (ntypx) = 10
     Max number of k-points (npk) =  40000
     Max angular momentum in pseudopotentials (lmaxx) =  3

     IMPORTANT: XC functional enforced from input :
     Exchange-correlation      = PZ ( 1  1  0  0 0 0)
     Any further DFT definition will be discarded
     Please, verify this is what you really want

               file C.pz-mt.fhi.UPF: wavefunction(s)  3d renormalized

     Subspace diagonalization in iterative solution of the eigenvalue problem:
     one sub-group per band group will be used
     scalapack distributed-memory algorithm (size of sub-group:  4*  4 procs)

 
     Parallelization info
     --------------------
     sticks:   dense  smooth     PW     G-vecs:    dense   smooth      PW
     Min          12      12      4                  183      183      32
     Max          13      13      5                  187      187      36
     Sum         499     499    163                 7391     7391    1363
 


     bravais-lattice index     =            2
     lattice parameter (alat)  =       6.7034  a.u.
     unit-cell volume          =      75.3061 (a.u.)^3
     number of atoms/cell      =            2
     number of atomic types    =            1
     number of electrons       =         8.00
     number of Kohn-Sham states=            4
     kinetic-energy cutoff     =      80.0000  Ry
     charge density cutoff     =     320.0000  Ry
     convergence threshold     =      1.0E-20
     mixing beta               =       0.7000
     number of iterations used =            8  plain     mixing
     Exchange-correlation      = PZ ( 1  1  0  0 0 0)

     celldm(1)=   6.703426  celldm(2)=   0.000000  celldm(3)=   0.000000
     celldm(4)=   0.000000  celldm(5)=   0.000000  celldm(6)=   0.000000

     crystal axes: (cart. coord. in units of alat)
               a(1) = (  -0.500000   0.000000   0.500000 )  
               a(2) = (   0.000000   0.500000   0.500000 )  
               a(3) = (  -0.500000   0.500000   0.000000 )  

     reciprocal axes: (cart. coord. in units 2 pi/alat)
               b(1) = ( -1.000000 -1.000000  1.000000 )  
               b(2) = (  1.000000  1.000000  1.000000 )  
               b(3) = ( -1.000000  1.000000 -1.000000 )  


     PseudoPot. # 1 for  C read from file:
     ../C.pz-mt.fhi.UPF
     MD5 check sum: b7c38bc33a0cf75f44be89b84470f298
     Pseudo is Norm-conserving, Zval =  4.0
     Generated using FHI98PP, converted with fhi2upf.x v.5.0.2
     Using radial grid of  461 points,  2 beta functions with: 
                l(1) =   0
                l(2) =   1

     atomic species   valence    mass     pseudopotential
        C              4.00    12.01100      C( 1.00)

     24 Sym. Ops. (no inversion) found
          (note: 24 additional sym.ops. were found but ignored
           their fractional translations are incommensurate with FFT grid)


   Cartesian axes

     site n.     atom                  positions (alat units)
         1           C   tau(   1) = (   0.0000000   0.0000000   0.0000000  )
         2           C   tau(   2) = (  -0.2500000   0.2500000   0.2500000  )

     number of k points=    72
                       cart. coord. in units 2pi/alat
        k(    1) = (   0.0000000   0.0000000   0.0000000), wk =   0.0011574
        k(    2) = (  -0.0833333   0.0833333  -0.0833333), wk =   0.0092593
        k(    3) = (  -0.1666667   0.1666667  -0.1666667), wk =   0.0092593
        k(    4) = (  -0.2500000   0.2500000  -0.2500000), wk =   0.0092593
        k(    5) = (  -0.3333333   0.3333333  -0.3333333), wk =   0.0092593
        k(    6) = (  -0.4166667   0.4166667  -0.4166667), wk =   0.0092593
        k(    7) = (   0.5000000  -0.5000000   0.5000000), wk =   0.0046296
        k(    8) = (   0.0000000   0.1666667   0.0000000), wk =   0.0069444
        k(    9) = (  -0.0833333   0.2500000  -0.0833333), wk =   0.0277778
        k(   10) = (  -0.1666667   0.3333333  -0.1666667), wk =   0.0277778
        k(   11) = (  -0.2500000   0.4166667  -0.2500000), wk =   0.0277778
        k(   12) = (  -0.3333333   0.5000000  -0.3333333), wk =   0.0277778
        k(   13) = (   0.5833333  -0.4166667   0.5833333), wk =   0.0277778
        k(   14) = (   0.5000000  -0.3333333   0.5000000), wk =   0.0277778
        k(   15) = (   0.4166667  -0.2500000   0.4166667), wk =   0.0277778
        k(   16) = (   0.3333333  -0.1666667   0.3333333), wk =   0.0277778
        k(   17) = (   0.2500000  -0.0833333   0.2500000), wk =   0.0277778
        k(   18) = (   0.1666667  -0.0000000   0.1666667), wk =   0.0138889
        k(   19) = (   0.0000000   0.3333333   0.0000000), wk =   0.0069444
        k(   20) = (  -0.0833333   0.4166667  -0.0833333), wk =   0.0277778
        k(   21) = (  -0.1666667   0.5000000  -0.1666667), wk =   0.0277778
        k(   22) = (  -0.2500000   0.5833333  -0.2500000), wk =   0.0277778
        k(   23) = (   0.6666667  -0.3333333   0.6666667), wk =   0.0277778
        k(   24) = (   0.5833333  -0.2500000   0.5833333), wk =   0.0277778
        k(   25) = (   0.5000000  -0.1666667   0.5000000), wk =   0.0277778
        k(   26) = (   0.4166667  -0.0833333   0.4166667), wk =   0.0277778
        k(   27) = (   0.3333333   0.0000000   0.3333333), wk =   0.0138889
        k(   28) = (   0.0000000   0.5000000   0.0000000), wk =   0.0069444
        k(   29) = (  -0.0833333   0.5833333  -0.0833333), wk =   0.0277778
        k(   30) = (  -0.1666667   0.6666667  -0.1666667), wk =   0.0277778
        k(   31) = (   0.7500000  -0.2500000   0.7500000), wk =   0.0277778
        k(   32) = (   0.6666667  -0.1666667   0.6666667), wk =   0.0277778
        k(   33) = (   0.5833333  -0.0833333   0.5833333), wk =   0.0277778
        k(   34) = (   0.5000000   0.0000000   0.5000000), wk =   0.0138889
        k(   35) = (   0.0000000   0.6666667   0.0000000), wk =   0.0069444
        k(   36) = (  -0.0833333   0.7500000  -0.0833333), wk =   0.0277778
        k(   37) = (   0.8333333  -0.1666667   0.8333333), wk =   0.0277778
        k(   38) = (   0.7500000  -0.0833333   0.7500000), wk =   0.0277778
        k(   39) = (   0.6666667  -0.0000000   0.6666667), wk =   0.0138889
        k(   40) = (   0.0000000   0.8333333   0.0000000), wk =   0.0069444
        k(   41) = (   0.9166667  -0.0833333   0.9166667), wk =   0.0277778
        k(   42) = (   0.8333333   0.0000000   0.8333333), wk =   0.0138889
        k(   43) = (   0.0000000  -1.0000000   0.0000000), wk =   0.0034722
        k(   44) = (  -0.1666667   0.3333333   0.0000000), wk =   0.0277778
        k(   45) = (  -0.2500000   0.4166667  -0.0833333), wk =   0.0555556
        k(   46) = (  -0.3333333   0.5000000  -0.1666667), wk =   0.0555556
        k(   47) = (   0.5833333  -0.4166667   0.7500000), wk =   0.0555556
        k(   48) = (   0.5000000  -0.3333333   0.6666667), wk =   0.0277778
        k(   49) = (  -0.1666667   0.5000000   0.0000000), wk =   0.0277778
        k(   50) = (  -0.2500000   0.5833333  -0.0833333), wk =   0.0555556
        k(   51) = (   0.6666667  -0.3333333   0.8333333), wk =   0.0555556
        k(   52) = (   0.5833333  -0.2500000   0.7500000), wk =   0.0555556
        k(   53) = (   0.5000000  -0.1666667   0.6666667), wk =   0.0555556
        k(   54) = (   0.4166667  -0.0833333   0.5833333), wk =   0.0555556
        k(   55) = (   0.3333333   0.0000000   0.5000000), wk =   0.0277778
        k(   56) = (  -0.1666667   0.6666667  -0.0000000), wk =   0.0277778
        k(   57) = (   0.7500000  -0.2500000   0.9166667), wk =   0.0555556
        k(   58) = (   0.6666667  -0.1666667   0.8333333), wk =   0.0555556
        k(   59) = (   0.5833333  -0.0833333   0.7500000), wk =   0.0555556
        k(   60) = (   0.5000000   0.0000000   0.6666667), wk =   0.0277778
        k(   61) = (   0.8333333  -0.1666667   1.0000000), wk =   0.0277778
        k(   62) = (   0.7500000  -0.0833333   0.9166667), wk =   0.0555556
        k(   63) = (   0.6666667   0.0000000   0.8333333), wk =   0.0277778
        k(   64) = (  -0.1666667  -1.0000000  -0.0000000), wk =   0.0138889
        k(   65) = (   0.6666667  -0.3333333   1.0000000), wk =   0.0277778
        k(   66) = (   0.5833333  -0.2500000   0.9166667), wk =   0.0555556
        k(   67) = (   0.5000000  -0.1666667   0.8333333), wk =   0.0277778
        k(   68) = (   0.6666667  -0.1666667   1.0000000), wk =   0.0277778
        k(   69) = (   0.5833333  -0.0833333   0.9166667), wk =   0.0555556
        k(   70) = (   0.5000000   0.0000000   0.8333333), wk =   0.0277778
        k(   71) = (  -0.3333333  -1.0000000   0.0000000), wk =   0.0138889
        k(   72) = (  -0.5000000  -1.0000000   0.0000000), wk =   0.0069444

     Dense  grid:     7391 G-vectors     FFT dimensions: (  27,  27,  27)

     Estimated max dynamical RAM per process >       0.25MB

     Estimated total allocated dynamical RAM >      10.15MB
     Message from routine sym_rho_init:
     some processors have no G-vectors for symmetrization

     Initial potential from superposition of free atoms

     starting charge    7.99993, renormalised to    8.00000
     Starting wfc are   18 randomized atomic wfcs

     total cpu time spent up to now is        1.1 secs

     per-process dynamical memory:    12.8 Mb

     Self-consistent Calculation

     iteration #  1     ecut=    80.00 Ry     beta=0.70
     Davidson diagonalization with overlap
     ethr =  1.00E-02,  avg # of iterations =  2.0

     total cpu time spent up to now is        1.6 secs

     total energy              =     -22.87705648 Ry
     Harris-Foulkes estimate   =     -22.94537256 Ry
     estimated scf accuracy    <       0.13018535 Ry

     iteration #  2     ecut=    80.00 Ry     beta=0.70
     Davidson diagonalization with overlap
     ethr =  1.63E-03,  avg # of iterations =  2.0

     total cpu time spent up to now is        2.0 secs

     total energy              =     -22.88902030 Ry
     Harris-Foulkes estimate   =     -22.88954285 Ry
     estimated scf accuracy    <       0.00191808 Ry

     iteration #  3     ecut=    80.00 Ry     beta=0.70
     Davidson diagonalization with overlap
     ethr =  2.40E-05,  avg # of iterations =  2.1

     total cpu time spent up to now is        2.4 secs

     total energy              =     -22.88939443 Ry
     Harris-Foulkes estimate   =     -22.88940885 Ry
     estimated scf accuracy    <       0.00007191 Ry

     iteration #  4     ecut=    80.00 Ry     beta=0.70
     Davidson diagonalization with overlap
     ethr =  8.99E-07,  avg # of iterations =  2.5

     total cpu time spent up to now is        2.9 secs

     total energy              =     -22.88941165 Ry
     Harris-Foulkes estimate   =     -22.88941485 Ry
     estimated scf accuracy    <       0.00000315 Ry

     iteration #  5     ecut=    80.00 Ry     beta=0.70
     Davidson diagonalization with overlap
     ethr =  3.93E-08,  avg # of iterations =  2.4

     total cpu time spent up to now is        3.4 secs

     total energy              =     -22.88941273 Ry
     Harris-Foulkes estimate   =     -22.88941274 Ry
     estimated scf accuracy    <       0.00000002 Ry

     iteration #  6     ecut=    80.00 Ry     beta=0.70
     Davidson diagonalization with overlap
     ethr =  2.91E-10,  avg # of iterations =  3.3

     total cpu time spent up to now is        4.0 secs

     total energy              =     -22.88941275 Ry
     Harris-Foulkes estimate   =     -22.88941275 Ry
     estimated scf accuracy    <          4.5E-10 Ry

     iteration #  7     ecut=    80.00 Ry     beta=0.70
     Davidson diagonalization with overlap
     ethr =  5.67E-12,  avg # of iterations =  2.7

     total cpu time spent up to now is        4.5 secs

     total energy              =     -22.88941275 Ry
     Harris-Foulkes estimate   =     -22.88941275 Ry
     estimated scf accuracy    <          3.9E-11 Ry

     iteration #  8     ecut=    80.00 Ry     beta=0.70
     Davidson diagonalization with overlap
     ethr =  4.92E-13,  avg # of iterations =  2.1

     total cpu time spent up to now is        4.9 secs

     total energy              =     -22.88941275 Ry
     Harris-Foulkes estimate   =     -22.88941275 Ry
     estimated scf accuracy    <          4.3E-13 Ry

     iteration #  9     ecut=    80.00 Ry     beta=0.70
     Davidson diagonalization with overlap
     ethr =  1.00E-13,  avg # of iterations =  1.6

     total cpu time spent up to now is        5.3 secs

     total energy              =     -22.88941275 Ry
     Harris-Foulkes estimate   =     -22.88941275 Ry
     estimated scf accuracy    <          3.0E-13 Ry

     iteration # 10     ecut=    80.00 Ry     beta=0.70
     Davidson diagonalization with overlap
     ethr =  1.00E-13,  avg # of iterations =  1.0

     total cpu time spent up to now is        5.6 secs

     total energy              =     -22.88941275 Ry
     Harris-Foulkes estimate   =     -22.88941275 Ry
     estimated scf accuracy    <          5.8E-14 Ry

     iteration # 11     ecut=    80.00 Ry     beta=0.70
     Davidson diagonalization with overlap
     ethr =  1.00E-13,  avg # of iterations =  1.0

     total cpu time spent up to now is        5.8 secs

     total energy              =     -22.88941275 Ry
     Harris-Foulkes estimate   =     -22.88941275 Ry
     estimated scf accuracy    <          6.5E-15 Ry

     iteration # 12     ecut=    80.00 Ry     beta=0.70
     Davidson diagonalization with overlap
     ethr =  1.00E-13,  avg # of iterations =  1.0

     total cpu time spent up to now is        6.1 secs

     total energy              =     -22.88941275 Ry
     Harris-Foulkes estimate   =     -22.88941275 Ry
     estimated scf accuracy    <          1.3E-15 Ry

     iteration # 13     ecut=    80.00 Ry     beta=0.70
     Davidson diagonalization with overlap
     ethr =  1.00E-13,  avg # of iterations =  1.0

     total cpu time spent up to now is        6.4 secs

     total energy              =     -22.88941275 Ry
     Harris-Foulkes estimate   =     -22.88941275 Ry
     estimated scf accuracy    <          1.7E-15 Ry

     iteration # 14     ecut=    80.00 Ry     beta=0.70
     Davidson diagonalization with overlap
     ethr =  1.00E-13,  avg # of iterations =  1.0

     total cpu time spent up to now is        6.7 secs

     total energy              =     -22.88941275 Ry
     Harris-Foulkes estimate   =     -22.88941275 Ry
     estimated scf accuracy    <          2.1E-15 Ry

     iteration # 15     ecut=    80.00 Ry     beta=0.70
     Davidson diagonalization with overlap
     ethr =  1.00E-13,  avg # of iterations =  1.0

     total cpu time spent up to now is        6.9 secs

     total energy              =     -22.88941275 Ry
     Harris-Foulkes estimate   =     -22.88941275 Ry
     estimated scf accuracy    <          1.2E-14 Ry

     iteration # 16     ecut=    80.00 Ry     beta=0.70
     Davidson diagonalization with overlap
     ethr =  1.00E-13,  avg # of iterations =  1.0

     total cpu time spent up to now is        7.2 secs

     total energy              =     -22.88941275 Ry
     Harris-Foulkes estimate   =     -22.88941275 Ry
     estimated scf accuracy    <          4.5E-15 Ry

     iteration # 17     ecut=    80.00 Ry     beta=0.70
     Davidson diagonalization with overlap
     ethr =  1.00E-13,  avg # of iterations =  1.0

     total cpu time spent up to now is        7.5 secs

     total energy              =     -22.88941275 Ry
     Harris-Foulkes estimate   =     -22.88941275 Ry
     estimated scf accuracy    <          1.7E-15 Ry

     iteration # 18     ecut=    80.00 Ry     beta=0.70
     Davidson diagonalization with overlap
     ethr =  1.00E-13,  avg # of iterations =  1.0

     total cpu time spent up to now is        7.8 secs

     total energy              =     -22.88941275 Ry
     Harris-Foulkes estimate   =     -22.88941275 Ry
     estimated scf accuracy    <          1.0E-15 Ry

     iteration # 19     ecut=    80.00 Ry     beta=0.70
     Davidson diagonalization with overlap
     ethr =  1.00E-13,  avg # of iterations =  1.0

     total cpu time spent up to now is        8.0 secs

     total energy              =     -22.88941275 Ry
     Harris-Foulkes estimate   =     -22.88941275 Ry
     estimated scf accuracy    <          2.2E-16 Ry

     iteration # 20     ecut=    80.00 Ry     beta=0.70
     Davidson diagonalization with overlap
     ethr =  1.00E-13,  avg # of iterations =  1.0

     total cpu time spent up to now is        8.3 secs

     total energy              =     -22.88941275 Ry
     Harris-Foulkes estimate   =     -22.88941275 Ry
     estimated scf accuracy    <          3.3E-17 Ry

     iteration # 21     ecut=    80.00 Ry     beta=0.70
     Davidson diagonalization with overlap
     ethr =  1.00E-13,  avg # of iterations =  1.0

     total cpu time spent up to now is        8.6 secs

     total energy              =     -22.88941275 Ry
     Harris-Foulkes estimate   =     -22.88941275 Ry
     estimated scf accuracy    <          2.1E-18 Ry

     iteration # 22     ecut=    80.00 Ry     beta=0.70
     Davidson diagonalization with overlap
     ethr =  1.00E-13,  avg # of iterations =  1.0

     total cpu time spent up to now is        8.9 secs

     total energy              =     -22.88941275 Ry
     Harris-Foulkes estimate   =     -22.88941275 Ry
     estimated scf accuracy    <          5.5E-19 Ry

     iteration # 23     ecut=    80.00 Ry     beta=0.70
     Davidson diagonalization with overlap
     ethr =  1.00E-13,  avg # of iterations =  1.0

     total cpu time spent up to now is        9.2 secs

     total energy              =     -22.88941275 Ry
     Harris-Foulkes estimate   =     -22.88941275 Ry
     estimated scf accuracy    <          1.6E-18 Ry

     iteration # 24     ecut=    80.00 Ry     beta=0.70
     Davidson diagonalization with overlap
     ethr =  1.00E-13,  avg # of iterations =  1.0

     total cpu time spent up to now is        9.4 secs

     total energy              =     -22.88941275 Ry
     Harris-Foulkes estimate   =     -22.88941275 Ry
     estimated scf accuracy    <          4.1E-19 Ry

     iteration # 25     ecut=    80.00 Ry     beta=0.70
     Davidson diagonalization with overlap
     ethr =  1.00E-13,  avg # of iterations =  1.0

     total cpu time spent up to now is        9.7 secs

     total energy              =     -22.88941275 Ry
     Harris-Foulkes estimate   =     -22.88941275 Ry
     estimated scf accuracy    <          3.0E-19 Ry

     iteration # 26     ecut=    80.00 Ry     beta=0.70
     Davidson diagonalization with overlap
     ethr =  1.00E-13,  avg # of iterations =  1.0

     total cpu time spent up to now is       10.0 secs

     total energy              =     -22.88941275 Ry
     Harris-Foulkes estimate   =     -22.88941275 Ry
     estimated scf accuracy    <          4.2E-19 Ry

     iteration # 27     ecut=    80.00 Ry     beta=0.70
     Davidson diagonalization with overlap
     ethr =  1.00E-13,  avg # of iterations =  1.0

     total cpu time spent up to now is       10.3 secs

     total energy              =     -22.88941275 Ry
     Harris-Foulkes estimate   =     -22.88941275 Ry
     estimated scf accuracy    <          3.3E-20 Ry

     iteration # 28     ecut=    80.00 Ry     beta=0.70
     Davidson diagonalization with overlap
     ethr =  1.00E-13,  avg # of iterations =  1.0

     total cpu time spent up to now is       10.5 secs

     End of self-consistent calculation

          k = 0.0000 0.0000 0.0000 (   941 PWs)   bands (ev):

    -8.1914  13.2956  13.2956  13.2956

          k =-0.0833 0.0833-0.0833 (   917 PWs)   bands (ev):

    -7.9964  12.0786  12.9705  12.9705

          k =-0.1667 0.1667-0.1667 (   917 PWs)   bands (ev):

    -7.4135   9.5603  12.2645  12.2645

          k =-0.2500 0.2500-0.2500 (   911 PWs)   bands (ev):

    -6.4509   6.7288  11.5371  11.5371

          k =-0.3333 0.3333-0.3333 (   926 PWs)   bands (ev):

    -5.1281   3.9406  10.9600  10.9600

          k =-0.4167 0.4167-0.4167 (   911 PWs)   bands (ev):

    -3.5102   1.4018  10.5991  10.5991

          k = 0.5000-0.5000 0.5000 (   912 PWs)   bands (ev):

    -2.2438  -0.1777  10.4768  10.4768

          k = 0.0000 0.1667 0.0000 (   917 PWs)   bands (ev):

    -7.9314  12.3755  12.3755  12.7102

          k =-0.0833 0.2500-0.0833 (   913 PWs)   bands (ev):

    -7.4779  10.4182  11.5660  12.3691

          k =-0.1667 0.3333-0.1667 (   913 PWs)   bands (ev):

    -6.6420   7.7366  10.8403  11.7010

          k =-0.2500 0.4167-0.2500 (   912 PWs)   bands (ev):

    -5.4385   4.9612  10.3316  10.9483

          k =-0.3333 0.5000-0.3333 (   902 PWs)   bands (ev):

    -3.9085   2.3436  10.0897  10.3007

          k = 0.5833-0.4167 0.5833 (   905 PWs)   bands (ev):

    -2.3124   0.2378   9.8460  10.1239

          k = 0.5000-0.3333 0.5000 (   909 PWs)   bands (ev):

    -2.7949   0.8245   9.6312  10.4208

          k = 0.4167-0.2500 0.4167 (   910 PWs)   bands (ev):

    -4.4499   3.1909   9.6829  10.9487

          k = 0.3333-0.1667 0.3333 (   913 PWs)   bands (ev):

    -5.8792   5.8870  10.0108  11.6494

          k = 0.2500-0.0833 0.2500 (   916 PWs)   bands (ev):

    -6.9626   8.6647  10.6047  12.4062

          k = 0.1667-0.0000 0.1667 (   911 PWs)   bands (ev):

    -7.6721  11.0791  11.5384  12.9694

          k = 0.0000 0.3333 0.0000 (   913 PWs)   bands (ev):

    -7.1550  10.6984  10.6984  11.1418

          k =-0.0833 0.4167-0.0833 (   909 PWs)   bands (ev):

    -6.4491   8.6668   9.9409  10.6683

          k =-0.1667 0.5000-0.1667 (   913 PWs)   bands (ev):

    -5.3721   6.1101   9.4257   9.9034

          k =-0.2500 0.5833-0.2500 (   904 PWs)   bands (ev):

    -3.9537   3.5443   9.0511   9.2064

          k = 0.6667-0.3333 0.6667 (   904 PWs)   bands (ev):

    -2.3200   1.2578   8.3253   9.2959

          k = 0.5833-0.2500 0.5833 (   912 PWs)   bands (ev):

    -1.8574   0.7092   7.8310   9.6789

          k = 0.5000-0.1667 0.5000 (   904 PWs)   bands (ev):

    -3.4251   2.7692   7.6247  10.3127

          k = 0.4167-0.0833 0.4167 (   908 PWs)   bands (ev):

    -4.9382   5.2974   7.7471  11.1124

          k = 0.3333 0.0000 0.3333 (   913 PWs)   bands (ev):

    -6.1321   7.6597   8.4550  11.9121

          k = 0.0000 0.5000 0.0000 (   902 PWs)   bands (ev):

    -5.8746   8.9100   9.1342   9.1342

          k =-0.0833 0.5833-0.0833 (   906 PWs)   bands (ev):

    -4.9284   6.9561   8.5574   8.5684

          k =-0.1667 0.6667-0.1667 (   902 PWs)   bands (ev):

    -3.6339   4.7357   7.5514   8.3084

          k = 0.7500-0.2500 0.7500 (   908 PWs)   bands (ev):

    -2.0666   2.5423   6.5561   8.3747

          k = 0.6667-0.1667 0.6667 (   915 PWs)   bands (ev):

    -0.9003   1.1836   5.7992   8.7574

          k = 0.5833-0.0833 0.5833 (   908 PWs)   bands (ev):

    -2.1012   2.6731   5.3804   9.4157

          k = 0.5000 0.0000 0.5000 (   907 PWs)   bands (ev):

    -3.6534   4.6802   5.6325  10.2605

          k = 0.0000 0.6667 0.0000 (   906 PWs)   bands (ev):

    -4.1148   6.2608   7.9343   7.9343

          k =-0.0833 0.7500-0.0833 (   906 PWs)   bands (ev):

    -2.9507   4.7525   7.0198   7.6032

          k = 0.8333-0.1667 0.8333 (   914 PWs)   bands (ev):

    -1.4890   3.2117   5.5600   7.6052

          k = 0.7500-0.0833 0.7500 (   915 PWs)   bands (ev):

    -0.0443   1.8813   4.2785   7.9380

          k = 0.6667-0.0000 0.6667 (   901 PWs)   bands (ev):

    -0.6169   2.4569   3.8031   8.5684

          k = 0.0000 0.8333 0.0000 (   906 PWs)   bands (ev):

    -1.9194   3.4253   7.1894   7.1894

          k = 0.9167-0.0833 0.9167 (   919 PWs)   bands (ev):

    -0.5798   2.0685   6.3754   7.1082

          k = 0.8333 0.0000 0.8333 (   922 PWs)   bands (ev):

     0.7740   1.0942   4.9277   7.3659

          k = 0.0000-1.0000 0.0000 (   934 PWs)   bands (ev):

     0.6357   0.6357   6.9374   6.9374

          k =-0.1667 0.3333 0.0000 (   915 PWs)   bands (ev):

    -6.8981   9.3354   9.9468  11.9643

          k =-0.2500 0.4167-0.0833 (   911 PWs)   bands (ev):

    -5.9413   6.9495   9.1067  11.2942

          k =-0.3333 0.5000-0.1667 (   907 PWs)   bands (ev):

    -4.6287   4.3003   8.7214  10.5082

          k = 0.5833-0.4167 0.7500 (   905 PWs)   bands (ev):

    -3.0289   1.8360   8.5988   9.8631

          k = 0.5000-0.3333 0.6667 (   912 PWs)   bands (ev):

    -1.7908   0.3011   8.6062   9.5900

          k =-0.1667 0.5000 0.0000 (   905 PWs)   bands (ev):

    -5.6227   7.6218   8.4363  10.0701

          k =-0.2500 0.5833-0.0833 (   906 PWs)   bands (ev):

    -4.4359   5.4676   7.7031   9.3152

          k = 0.6667-0.3333 0.8333 (   905 PWs)   bands (ev):

    -2.9351   3.0945   7.3311   8.6757

          k = 0.5833-0.2500 0.7500 (   912 PWs)   bands (ev):

    -1.3953   1.1324   6.9319   8.5722

          k = 0.5000-0.1667 0.6667 (   912 PWs)   bands (ev):

    -1.8659   1.7087   6.5854   8.9901

          k = 0.4167-0.0833 0.5833 (   906 PWs)   bands (ev):

    -3.4722   3.9302   6.4950   9.7250

          k = 0.3333 0.0000 0.5000 (   914 PWs)   bands (ev):

    -4.8738   6.1007   7.0144  10.5862

          k =-0.1667 0.6667-0.0000 (   902 PWs)   bands (ev):

    -3.8727   5.8015   7.2801   8.0769

          k = 0.7500-0.2500 0.9167 (   910 PWs)   bands (ev):

    -2.4911   4.1019   6.2781   7.5339

          k = 0.6667-0.1667 0.8333 (   910 PWs)   bands (ev):

    -0.9243   2.2810   5.3087   7.5656

          k = 0.5833-0.0833 0.7500 (   909 PWs)   bands (ev):

    -0.5452   1.9287   4.6211   8.0350

          k = 0.5000 0.0000 0.6667 (   906 PWs)   bands (ev):

    -2.0240   3.4990   4.6270   8.8066

          k = 0.8333-0.1667 1.0000 (   919 PWs)   bands (ev):

    -1.6986   3.4411   6.5843   6.8411

          k = 0.7500-0.0833 0.9167 (   914 PWs)   bands (ev):

    -0.2041   2.2064   5.1774   6.8173

          k = 0.6667 0.0000 0.8333 (   906 PWs)   bands (ev):

     0.6101   1.7113   3.9490   7.2693

          k =-0.1667-1.0000-0.0000 (   922 PWs)   bands (ev):

     0.8043   0.8043   6.4107   6.4107

          k = 0.6667-0.3333 1.0000 (   909 PWs)   bands (ev):

    -3.1593   4.7162   5.9266   8.4527

          k = 0.5833-0.2500 0.9167 (   909 PWs)   bands (ev):

    -1.6215   2.9198   5.4813   7.6410

          k = 0.5000-0.1667 0.8333 (   916 PWs)   bands (ev):

    -0.4617   1.5707   5.4743   7.2965

          k = 0.6667-0.1667 1.0000 (   909 PWs)   bands (ev):

    -1.0657   3.2453   5.3326   6.4134

          k = 0.5833-0.0833 0.9167 (   909 PWs)   bands (ev):

     0.3572   2.1137   4.5274   6.1206

          k = 0.5000 0.0000 0.8333 (   911 PWs)   bands (ev):

    -0.1537   2.5464   4.2278   6.6715

          k =-0.3333-1.0000 0.0000 (   912 PWs)   bands (ev):

     1.2196   1.2196   5.3861   5.3861

          k =-0.5000-1.0000 0.0000 (   892 PWs)   bands (ev):

     1.4949   1.4949   4.8450   4.8450

     highest occupied level (ev):    13.2956

!    total energy              =     -22.88941275 Ry
     Harris-Foulkes estimate   =     -22.88941275 Ry
     estimated scf accuracy    <          9.2E-22 Ry

     The total energy is the sum of the following terms:

     one-electron contribution =       8.01426873 Ry
     hartree contribution      =       1.90770301 Ry
     xc contribution           =      -7.09654107 Ry
     ewald contribution        =     -25.71484342 Ry

     convergence has been achieved in  28 iterations

     Writing output data file c.save
 
     init_run     :      0.33s CPU      0.68s WALL (       1 calls)
     electrons    :      9.19s CPU      9.45s WALL (       1 calls)

     Called by init_run:
     wfcinit      :      0.29s CPU      0.34s WALL (       1 calls)
     potinit      :      0.01s CPU      0.06s WALL (       1 calls)

     Called by electrons:
     c_bands      :      8.91s CPU      9.10s WALL (      28 calls)
     sum_band     :      0.24s CPU      0.26s WALL (      28 calls)
     v_of_rho     :      0.01s CPU      0.02s WALL (      29 calls)
     mix_rho      :      0.02s CPU      0.02s WALL (      28 calls)

     Called by c_bands:
     init_us_2    :      0.03s CPU      0.03s WALL (    4104 calls)
     cegterg      :      8.79s CPU      8.97s WALL (    2016 calls)

     Called by sum_band:

     Called by *egterg:
     h_psi        :      1.32s CPU      1.36s WALL (    4936 calls)
     g_psi        :      0.00s CPU      0.00s WALL (    2848 calls)
     cdiaghg      :      4.41s CPU      4.49s WALL (    4864 calls)

     Called by h_psi:
     h_psi:pot    :      1.31s CPU      1.36s WALL (    4936 calls)
     h_psi:calbec :      0.09s CPU      0.09s WALL (    4936 calls)
     vloc_psi     :      1.18s CPU      1.21s WALL (    4936 calls)
     add_vuspsi   :      0.03s CPU      0.03s WALL (    4936 calls)

     General routines
     calbec       :      0.08s CPU      0.09s WALL (    4936 calls)
     fft          :      0.01s CPU      0.03s WALL (     115 calls)
     fftw         :      1.31s CPU      1.35s WALL (   47226 calls)
 
     Parallel routines
     fft_scatter  :      0.98s CPU      1.01s WALL (   47341 calls)
 
     PWSCF        :     9.94s CPU        14.34s WALL

 
   This run was terminated on:  12:12:17  17Dec2020            

=------------------------------------------------------------------------------=
   JOB DONE.
=------------------------------------------------------------------------------=
