ANIMSTEPS   6
CRYSTAL
PRIMVEC
   -1.766128934    0.000000000    1.766128934
    0.000000000    1.766128934    1.766128934
   -1.766128934    1.766128934    0.000000000
PRIMCOORD  1
      2   1
   C      0.00000   0.00000   0.00000   0.00000   0.05000  -0.05000
   C     -0.88306   0.88306   0.88306   0.00000   0.05000  -0.05000
PRIMCOORD  2
      2   1
   C      0.00000   0.00000   0.00000  -0.07071   0.00000   0.00000
   C     -0.88306   0.88306   0.88306  -0.07071   0.00000   0.00000
PRIMCOORD  3
      2   1
   C      0.00000   0.00000   0.00000   0.00000   0.05000   0.05000
   C     -0.88306   0.88306   0.88306   0.00000   0.05000   0.05000
PRIMCOORD  4
      2   1
   C      0.00000   0.00000   0.00000   0.00000  -0.04540  -0.05421
   C     -0.88306   0.88306   0.88306   0.00000   0.04540   0.05421
PRIMCOORD  5
      2   1
   C      0.00000   0.00000   0.00000   0.00000   0.05421  -0.04540
   C     -0.88306   0.88306   0.88306   0.00000  -0.05421   0.04540
PRIMCOORD  6
      2   1
   C      0.00000   0.00000   0.00000  -0.07071   0.00000   0.00000
   C     -0.88306   0.88306   0.88306   0.07071   0.00000   0.00000
