[Molden Format]
[FREQ]
    0.00
    0.00
    0.00
 1342.16
 1342.16
 1342.16
[FR-COORD]
   C           0.00000        0.00000        0.00000
   C          -1.66875        1.66875        1.66875
[FR-NORM-COORD]
 vibration     1
   0.00000   0.50000  -0.50000
   0.00000   0.50000  -0.50000
 vibration     2
  -0.70711   0.00000   0.00000
  -0.70711   0.00000   0.00000
 vibration     3
   0.00000   0.50000   0.50000
   0.00000   0.50000   0.50000
 vibration     4
   0.00000  -0.45403  -0.54209
   0.00000   0.45403   0.54209
 vibration     5
   0.00000   0.54209  -0.45403
   0.00000  -0.54209   0.45403
 vibration     6
  -0.70711   0.00000   0.00000
   0.70711   0.00000   0.00000
