
     Program PHONON v.6.1 (svn rev. 13369) starts on  4Jan2021 at 16:44:35 

     This program is part of the open-source Quantum ESPRESSO suite
     for quantum simulation of materials; please cite
         "P. Giannozzi et al., J. Phys.:Condens. Matter 21 395502 (2009);
          URL http://www.quantum-espresso.org", 
     in publications or presentations arising from this work. More details at
     http://www.quantum-espresso.org/quote

     Parallel version (MPI & OpenMP), running on      80 processor cores
     Number of MPI processes:                80
     Threads/MPI process:                     1
     R & G space division:  proc/nbgrp/npool/nimage =      80

     Reading data from directory:
     ./c.save

   Info: using nr1, nr2, nr3 values from input

   Info: using nr1, nr2, nr3 values from input

     IMPORTANT: XC functional enforced from input :
     Exchange-correlation      = PZ ( 1  1  0  0 0 0)
     Any further DFT definition will be discarded
     Please, verify this is what you really want

               file C.pz-mt.fhi.UPF: wavefunction(s)  3d renormalized
 
     Parallelization info
     --------------------
     sticks:   dense  smooth     PW     G-vecs:    dense   smooth      PW
     Min           4       4      1                   56       56       9
     Max           5       5      2                   60       60      14
     Sum         367     367    121                 4645     4645     869
 


     Dynamical matrices for ( 4, 4, 4)  uniform grid of q-points
     (   8q-points):
       N         xq(1)         xq(2)         xq(3) 
       1   0.000000000   0.000000000   0.000000000
       2  -0.250000000   0.250000000  -0.250000000
       3   0.500000000  -0.500000000   0.500000000
       4   0.000000000   0.500000000   0.000000000
       5   0.750000000  -0.250000000   0.750000000
       6   0.500000000   0.000000000   0.500000000
       7   0.000000000  -1.000000000   0.000000000
       8  -0.500000000  -1.000000000   0.000000000

     Calculation of q =    0.0000000   0.0000000   0.0000000

                                                                                

     bravais-lattice index     =            2
     lattice parameter (alat)  =       6.6750  a.u.
     unit-cell volume          =      74.3522 (a.u.)^3
     number of atoms/cell      =            2
     number of atomic types    =            1
     kinetic-energy cut-off    =      60.0000  Ry
     charge density cut-off    =     240.0000  Ry
     convergence threshold     =      1.0E-24
     beta                      =       0.7000
     number of iterations used =            4
     Exchange-correlation      = PZ ( 1  1  0  0 0 0)


     celldm(1)=    6.67500  celldm(2)=    0.00000  celldm(3)=    0.00000
     celldm(4)=    0.00000  celldm(5)=    0.00000  celldm(6)=    0.00000

     crystal axes: (cart. coord. in units of alat)
               a(1) = ( -0.5000  0.0000  0.5000 )  
               a(2) = (  0.0000  0.5000  0.5000 )  
               a(3) = ( -0.5000  0.5000  0.0000 )  

     reciprocal axes: (cart. coord. in units 2 pi/alat)
               b(1) = ( -1.0000 -1.0000  1.0000 )  
               b(2) = (  1.0000  1.0000  1.0000 )  
               b(3) = ( -1.0000  1.0000 -1.0000 )  


     Atoms inside the unit cell: 

     Cartesian axes

     site n.  atom      mass           positions (alat units)
        1     C   12.0110   tau(    1) = (    0.00000    0.00000    0.00000  )
        2     C   12.0110   tau(    2) = (   -0.25000    0.25000    0.25000  )

     Computing dynamical matrix for 
                    q = (   0.0000000   0.0000000   0.0000000 )
 
     49 Sym.Ops. (with q -> -q+G )


     G cutoff =  270.8657  (     60 G-vectors)     FFT grid: ( 24, 24, 24)
     number of k points=     8

     PseudoPot. # 1 for  C read from file:
     ../C.pz-mt.fhi.UPF
     MD5 check sum: b7c38bc33a0cf75f44be89b84470f298
     Pseudo is Norm-conserving, Zval =  4.0
     Generated using FHI98PP, converted with fhi2upf.x v.5.0.2
     Using radial grid of  461 points,  2 beta functions with: 
                l(1) =   0
                l(2) =   1

     Mode symmetry, O_h (m-3m)  point group:


     Electric field:
     Dielectric constant
     Born effective charges in two ways 


     Atomic displacements:
     There are   2 irreducible representations

     Representation     1      3 modes -T_2g G_25' G_5+  To be done

     Representation     2      3 modes -T_1u G_15  G_4-  To be done



     Alpha used in Ewald sum =   2.5000
     PHONON       :     1.05s CPU         2.29s WALL


     Electric Fields Calculation

      iter #   1 total cpu time :     3.0 secs   av.it.:   5.3
      thresh= 1.000E-02 alpha_mix =  0.700 |ddv_scf|^2 =  3.404E-09

      iter #   2 total cpu time :     3.8 secs   av.it.:   9.8
      thresh= 5.835E-06 alpha_mix =  0.700 |ddv_scf|^2 =  3.828E-11

      iter #   3 total cpu time :     4.0 secs   av.it.:   9.8
      thresh= 6.187E-07 alpha_mix =  0.700 |ddv_scf|^2 =  1.896E-12

      iter #   4 total cpu time :     4.3 secs   av.it.:  10.0
      thresh= 1.377E-07 alpha_mix =  0.700 |ddv_scf|^2 =  3.024E-15

      iter #   5 total cpu time :     5.6 secs   av.it.:   9.5
      thresh= 5.499E-09 alpha_mix =  0.700 |ddv_scf|^2 =  4.741E-19

      iter #   6 total cpu time :     5.9 secs   av.it.:   9.7
      thresh= 6.886E-11 alpha_mix =  0.700 |ddv_scf|^2 =  6.225E-21

      iter #   7 total cpu time :     8.3 secs   av.it.:   9.4
      thresh= 7.890E-12 alpha_mix =  0.700 |ddv_scf|^2 =  2.977E-24

      iter #   8 total cpu time :     8.5 secs   av.it.:   9.2
      thresh= 1.725E-13 alpha_mix =  0.700 |ddv_scf|^2 =  3.801E-26

     End of electric fields calculation

          Dielectric constant in cartesian axis 

          (       7.211308915       0.000000000      -0.000000000 )
          (       0.000000000       7.211308915      -0.000000000 )
          (      -0.000000000      -0.000000000       7.211308915 )

          Effective charges (d Force / dE) in cartesian axis

           atom      1   C  
      Ex  (       -0.34870        0.00000       -0.00000 )
      Ey  (        0.00000       -0.34870        0.00000 )
      Ez  (       -0.00000       -0.00000       -0.34870 )
           atom      2   C  
      Ex  (       -0.34870       -0.00000        0.00000 )
      Ey  (       -0.00000       -0.34870        0.00000 )
      Ez  (        0.00000        0.00000       -0.34870 )


     Representation #  1 modes #   1  2  3

     Self-consistent Calculation

      iter #   1 total cpu time :     9.5 secs   av.it.:   5.6
      thresh= 1.000E-02 alpha_mix =  0.700 |ddv_scf|^2 =  5.271E-08

      iter #   2 total cpu time :    10.0 secs   av.it.:   9.5
      thresh= 2.296E-05 alpha_mix =  0.700 |ddv_scf|^2 =  1.373E-10

      iter #   3 total cpu time :    10.2 secs   av.it.:   9.5
      thresh= 1.172E-06 alpha_mix =  0.700 |ddv_scf|^2 =  2.083E-12

      iter #   4 total cpu time :    10.5 secs   av.it.:   9.3
      thresh= 1.443E-07 alpha_mix =  0.700 |ddv_scf|^2 =  2.906E-15

      iter #   5 total cpu time :    10.7 secs   av.it.:   9.6
      thresh= 5.391E-09 alpha_mix =  0.700 |ddv_scf|^2 =  2.661E-18

      iter #   6 total cpu time :    10.9 secs   av.it.:   9.9
      thresh= 1.631E-10 alpha_mix =  0.700 |ddv_scf|^2 =  9.642E-20

      iter #   7 total cpu time :    11.9 secs   av.it.:  10.0
      thresh= 3.105E-11 alpha_mix =  0.700 |ddv_scf|^2 =  8.122E-23

      iter #   8 total cpu time :    12.2 secs   av.it.:   9.7
      thresh= 9.012E-13 alpha_mix =  0.700 |ddv_scf|^2 =  6.548E-24

      iter #   9 total cpu time :    12.8 secs   av.it.:   9.7
      thresh= 2.559E-13 alpha_mix =  0.700 |ddv_scf|^2 =  1.101E-27

     End of self-consistent calculation

     Convergence has been achieved 


     Representation #  2 modes #   4  5  6

     Self-consistent Calculation

      iter #   1 total cpu time :    13.3 secs   av.it.:   6.1
      thresh= 1.000E-02 alpha_mix =  0.700 |ddv_scf|^2 =  3.476E-08

      iter #   2 total cpu time :    13.5 secs   av.it.:  10.2
      thresh= 1.864E-05 alpha_mix =  0.700 |ddv_scf|^2 =  3.419E-11

      iter #   3 total cpu time :    13.8 secs   av.it.:   9.8
      thresh= 5.847E-07 alpha_mix =  0.700 |ddv_scf|^2 =  3.057E-12

      iter #   4 total cpu time :    14.0 secs   av.it.:   9.8
      thresh= 1.748E-07 alpha_mix =  0.700 |ddv_scf|^2 =  2.202E-15

      iter #   5 total cpu time :    14.5 secs   av.it.:  10.5
      thresh= 4.692E-09 alpha_mix =  0.700 |ddv_scf|^2 =  5.328E-19

      iter #   6 total cpu time :    14.9 secs   av.it.:  10.4
      thresh= 7.299E-11 alpha_mix =  0.700 |ddv_scf|^2 =  2.965E-20

      iter #   7 total cpu time :    15.2 secs   av.it.:   9.4
      thresh= 1.722E-11 alpha_mix =  0.700 |ddv_scf|^2 =  1.512E-24

      iter #   8 total cpu time :    15.7 secs   av.it.:   8.9
      thresh= 1.230E-13 alpha_mix =  0.700 |ddv_scf|^2 =  1.446E-25

     End of self-consistent calculation

     Convergence has been achieved 
 
     Number of q in the star =    1
     List of q in the star:
          1   0.000000000   0.000000000   0.000000000

          Dielectric constant in cartesian axis 

          (       7.211308915       0.000000000      -0.000000000 )
          (       0.000000000       7.211308915      -0.000000000 )
          (      -0.000000000      -0.000000000       7.211308915 )

          Effective charges (d Force / dE) in cartesian axis

           atom      1   C  
      Ex  (       -0.34870        0.00000       -0.00000 )
      Ey  (        0.00000       -0.34870        0.00000 )
      Ez  (       -0.00000       -0.00000       -0.34870 )
           atom      2   C  
      Ex  (       -0.34870       -0.00000        0.00000 )
      Ey  (       -0.00000       -0.34870        0.00000 )
      Ez  (        0.00000        0.00000       -0.34870 )

          Effective charges (d P / du) in cartesian axis 

           atom      1   C  
      Px  (       -0.34870        0.00000        0.00000 )
      Py  (        0.00000       -0.34870       -0.00000 )
      Pz  (        0.00000       -0.00000       -0.34870 )
           atom      2   C  
      Px  (       -0.34870        0.00000        0.00000 )
      Py  (        0.00000       -0.34870        0.00000 )
      Pz  (        0.00000       -0.00000       -0.34870 )

     Diagonalizing the dynamical matrix

     q = (    0.000000000   0.000000000   0.000000000 ) 

 **************************************************************************
     freq (    1) =      -4.827681 [THz] =    -161.034103 [cm-1]
     freq (    2) =      -4.827681 [THz] =    -161.034103 [cm-1]
     freq (    3) =      -4.827681 [THz] =    -161.034103 [cm-1]
     freq (    4) =      39.946305 [THz] =    1332.465307 [cm-1]
     freq (    5) =      39.946305 [THz] =    1332.465307 [cm-1]
     freq (    6) =      39.946305 [THz] =    1332.465307 [cm-1]
 **************************************************************************

     Mode symmetry, O_h (m-3m)  point group:

     freq (  1 -  3) =       -161.0  [cm-1]   --> T_1u G_15  G_4- I  
     freq (  4 -  6) =       1332.5  [cm-1]   --> T_2g G_25' G_5+ R  

     Calculation of q =   -0.2500000   0.2500000  -0.2500000

   Info: using nr1, nr2, nr3 values from input

   Info: using nr1, nr2, nr3 values from input
 
     Parallelization info
     --------------------
     sticks:   dense  smooth     PW     G-vecs:    dense   smooth      PW
     Min           4       4      1                   56       56       9
     Max           5       5      2                   60       60      14
     Sum         367     367    121                 4645     4645     941
 


     bravais-lattice index     =            2
     lattice parameter (alat)  =       6.6750  a.u.
     unit-cell volume          =      74.3522 (a.u.)^3
     number of atoms/cell      =            2
     number of atomic types    =            1
     number of electrons       =         8.00
     number of Kohn-Sham states=            8
     kinetic-energy cutoff     =      60.0000  Ry
     charge density cutoff     =     240.0000  Ry
     Exchange-correlation      = PZ ( 1  1  0  0 0 0)

     celldm(1)=   6.675000  celldm(2)=   0.000000  celldm(3)=   0.000000
     celldm(4)=   0.000000  celldm(5)=   0.000000  celldm(6)=   0.000000

     crystal axes: (cart. coord. in units of alat)
               a(1) = (  -0.500000   0.000000   0.500000 )  
               a(2) = (   0.000000   0.500000   0.500000 )  
               a(3) = (  -0.500000   0.500000   0.000000 )  

     reciprocal axes: (cart. coord. in units 2 pi/alat)
               b(1) = ( -1.000000 -1.000000  1.000000 )  
               b(2) = (  1.000000  1.000000  1.000000 )  
               b(3) = ( -1.000000  1.000000 -1.000000 )  


     PseudoPot. # 1 for  C read from file:
     ../C.pz-mt.fhi.UPF
     MD5 check sum: b7c38bc33a0cf75f44be89b84470f298
     Pseudo is Norm-conserving, Zval =  4.0
     Generated using FHI98PP, converted with fhi2upf.x v.5.0.2
     Using radial grid of  461 points,  2 beta functions with: 
                l(1) =   0
                l(2) =   1

     atomic species   valence    mass     pseudopotential
        C              4.00    12.01100      C( 1.00)

     48 Sym. Ops., with inversion, found



   Cartesian axes

     site n.     atom                  positions (alat units)
         1           C   tau(   1) = (   0.0000000   0.0000000   0.0000000  )
         2           C   tau(   2) = (  -0.2500000   0.2500000   0.2500000  )

     number of k points=    40
                       cart. coord. in units 2pi/alat
        k(    1) = (   0.0000000   0.0000000   0.0000000), wk =   0.0312500
        k(    2) = (  -0.2500000   0.2500000  -0.2500000), wk =   0.0000000
        k(    3) = (  -0.2500000   0.2500000  -0.2500000), wk =   0.0312500
        k(    4) = (  -0.5000000   0.5000000  -0.5000000), wk =   0.0000000
        k(    5) = (   0.5000000  -0.5000000   0.5000000), wk =   0.0312500
        k(    6) = (   0.2500000  -0.2500000   0.2500000), wk =   0.0000000
        k(    7) = (   0.0000000   0.5000000   0.0000000), wk =   0.0937500
        k(    8) = (  -0.2500000   0.7500000  -0.2500000), wk =   0.0000000
        k(    9) = (   0.7500000  -0.2500000   0.7500000), wk =   0.0937500
        k(   10) = (   0.5000000   0.0000000   0.5000000), wk =   0.0000000
        k(   11) = (   0.5000000   0.0000000   0.5000000), wk =   0.0937500
        k(   12) = (   0.2500000   0.2500000   0.2500000), wk =   0.0000000
        k(   13) = (   0.0000000  -1.0000000   0.0000000), wk =   0.0937500
        k(   14) = (  -0.2500000  -0.7500000  -0.2500000), wk =   0.0000000
        k(   15) = (  -0.5000000  -1.0000000   0.0000000), wk =   0.1875000
        k(   16) = (  -0.7500000  -0.7500000  -0.2500000), wk =   0.0000000
        k(   17) = (   0.2500000  -0.2500000  -0.2500000), wk =   0.0937500
        k(   18) = (   0.0000000   0.0000000  -0.5000000), wk =   0.0000000
        k(   19) = (   0.2500000  -0.2500000   0.2500000), wk =   0.0312500
        k(   20) = (   0.0000000   0.0000000   0.0000000), wk =   0.0000000
        k(   21) = (  -0.2500000  -0.2500000  -0.2500000), wk =   0.0937500
        k(   22) = (  -0.5000000   0.0000000  -0.5000000), wk =   0.0000000
        k(   23) = (  -0.5000000   0.5000000   0.5000000), wk =   0.0937500
        k(   24) = (  -0.7500000   0.7500000   0.2500000), wk =   0.0000000
        k(   25) = (   0.0000000   0.0000000   0.5000000), wk =   0.0937500
        k(   26) = (  -0.2500000   0.2500000   0.2500000), wk =   0.0000000
        k(   27) = (  -0.7500000   0.7500000   0.2500000), wk =   0.0937500
        k(   28) = (  -1.0000000   1.0000000   0.0000000), wk =   0.0000000
        k(   29) = (  -0.7500000   0.7500000  -0.2500000), wk =   0.0937500
        k(   30) = (  -1.0000000   1.0000000  -0.5000000), wk =   0.0000000
        k(   31) = (  -0.7500000   0.2500000   0.7500000), wk =   0.1875000
        k(   32) = (  -1.0000000   0.5000000   0.5000000), wk =   0.0000000
        k(   33) = (   0.7500000   0.2500000   0.7500000), wk =   0.0937500
        k(   34) = (   0.5000000   0.5000000   0.5000000), wk =   0.0000000
        k(   35) = (   0.7500000  -0.2500000  -0.7500000), wk =   0.1875000
        k(   36) = (   0.5000000   0.0000000  -1.0000000), wk =   0.0000000
        k(   37) = (  -0.5000000   0.5000000   0.0000000), wk =   0.0937500
        k(   38) = (  -0.7500000   0.7500000  -0.2500000), wk =   0.0000000
        k(   39) = (  -0.5000000   0.0000000   0.5000000), wk =   0.1875000
        k(   40) = (  -0.7500000   0.2500000   0.2500000), wk =   0.0000000

     Dense  grid:     4645 G-vectors     FFT dimensions: (  24,  24,  24)

     Estimated max dynamical RAM per process >       0.16MB

     Estimated total allocated dynamical RAM >      12.76MB
     Message from routine sym_rho_init:
     some processors have no G-vectors for symmetrization
     Message from routine sym_rho_init:
     some processors have no G-vectors for symmetrization
     Message from routine sym_rho_init:
     some processors have no G-vectors for symmetrization
     Message from routine sym_rho_init:
     some processors have no G-vectors for symmetrization
     Message from routine sym_rho_init:
     some processors have no G-vectors for symmetrization
     Message from routine sym_rho_init:
     some processors have no G-vectors for symmetrization
     Message from routine sym_rho_init:
     some processors have no G-vectors for symmetrization
     Message from routine sym_rho_init:
     some processors have no G-vectors for symmetrization
     Message from routine sym_rho_init:
     some processors have no G-vectors for symmetrization
     Message from routine sym_rho_init:
     some processors have no G-vectors for symmetrization
     Message from routine sym_rho_init:
     some processors have no G-vectors for symmetrization
     Message from routine sym_rho_init:
     some processors have no G-vectors for symmetrization
     Message from routine sym_rho_init:
     some processors have no G-vectors for symmetrization
     Message from routine sym_rho_init:
     some processors have no G-vectors for symmetrization
     Message from routine sym_rho_init:
     some processors have no G-vectors for symmetrization
     Message from routine sym_rho_init:
     some processors have no G-vectors for symmetrization
     Message from routine sym_rho_init:
     some processors have no G-vectors for symmetrization
     Message from routine sym_rho_init:
     some processors have no G-vectors for symmetrization
     Message from routine sym_rho_init:
     some processors have no G-vectors for symmetrization
     Message from routine sym_rho_init:
     some processors have no G-vectors for symmetrization
     Message from routine sym_rho_init:
     some processors have no G-vectors for symmetrization
     Message from routine sym_rho_init:
     some processors have no G-vectors for symmetrization
     Message from routine sym_rho_init:
     some processors have no G-vectors for symmetrization
     Message from routine sym_rho_init:
     some processors have no G-vectors for symmetrization
     Message from routine sym_rho_init:
     some processors have no G-vectors for symmetrization
     Message from routine sym_rho_init:
     some processors have no G-vectors for symmetrization
     Message from routine sym_rho_init:
     some processors have no G-vectors for symmetrization
     Message from routine sym_rho_init:
     some processors have no G-vectors for symmetrization
     Message from routine sym_rho_init:
     some processors have no G-vectors for symmetrization
     Message from routine sym_rho_init:
     some processors have no G-vectors for symmetrization
     Message from routine sym_rho_init:
     some processors have no G-vectors for symmetrization
     Message from routine sym_rho_init:
     some processors have no G-vectors for symmetrization
     Message from routine sym_rho_init:
     some processors have no G-vectors for symmetrization
     Message from routine sym_rho_init:
     some processors have no G-vectors for symmetrization
     Message from routine sym_rho_init:
     some processors have no G-vectors for symmetrization
     Message from routine sym_rho_init:
     some processors have no G-vectors for symmetrization
     Message from routine sym_rho_init:
     some processors have no G-vectors for symmetrization
     Message from routine sym_rho_init:
     some processors have no G-vectors for symmetrization
     Message from routine sym_rho_init:
     some processors have no G-vectors for symmetrization
     Message from routine sym_rho_init:
     some processors have no G-vectors for symmetrization
     Message from routine sym_rho_init:
     some processors have no G-vectors for symmetrization
     Message from routine sym_rho_init:
     some processors have no G-vectors for symmetrization
     Message from routine sym_rho_init:
     some processors have no G-vectors for symmetrization
     Message from routine sym_rho_init:
     some processors have no G-vectors for symmetrization
     Message from routine sym_rho_init:
     some processors have no G-vectors for symmetrization
     Message from routine sym_rho_init:
     some processors have no G-vectors for symmetrization
     Message from routine sym_rho_init:
     some processors have no G-vectors for symmetrization
     Message from routine sym_rho_init:
     some processors have no G-vectors for symmetrization
     Message from routine sym_rho_init:
     some processors have no G-vectors for symmetrization

     The potential is recalculated from file :
     ./_ph0/c.q_2/c.save/charge-density.dat

     Starting wfc are   18 atomic wfcs

     Band Structure Calculation
     Davidson diagonalization with overlap

     ethr =  1.25E-10,  avg # of iterations =  9.3

     total cpu time spent up to now is        0.9 secs

     End of band structure calculation

          k = 0.0000 0.0000 0.0000 (   561 PWs)   bands (ev):

    -8.1281  13.5310  13.5310  13.5310  19.1716  19.1716  19.1716  27.6020

          k =-0.2500 0.2500-0.2500 (   580 PWs)   bands (ev):

    -6.3720   6.9032  11.7496  11.7496  21.4057  21.4057  21.9968  28.5184

          k =-0.2500 0.2500-0.2500 (   580 PWs)   bands (ev):

    -6.3720   6.9032  11.7496  11.7496  21.4057  21.4057  21.9968  28.5184

          k =-0.5000 0.5000-0.5000 (   580 PWs)   bands (ev):

    -2.1041  -0.0861  10.6783  10.6783  22.0633  22.0633  22.9283  29.2327

          k = 0.5000-0.5000 0.5000 (   580 PWs)   bands (ev):

    -2.1041  -0.0861  10.6783  10.6783  22.0633  22.0633  22.9283  29.2327

          k = 0.2500-0.2500 0.2500 (   580 PWs)   bands (ev):

    -6.3720   6.9032  11.7496  11.7496  21.4057  21.4057  21.9968  28.5184

          k = 0.0000 0.5000 0.0000 (   576 PWs)   bands (ev):

    -5.7910   9.1310   9.3150   9.3150  18.0630  23.9431  25.2762  25.2762

          k =-0.2500 0.7500-0.2500 (   584 PWs)   bands (ev):

    -1.9432   2.6847   6.7252   8.5481  19.6931  25.0930  26.5091  27.1820

          k = 0.7500-0.2500 0.7500 (   584 PWs)   bands (ev):

    -1.9432   2.6847   6.7252   8.5481  19.6931  25.0930  26.5091  27.1820

          k = 0.5000 0.0000 0.5000 (   590 PWs)   bands (ev):

    -3.5480   4.8517   5.7799  10.4578  21.5865  23.6670  26.1023  27.7959

          k = 0.5000 0.0000 0.5000 (   590 PWs)   bands (ev):

    -3.5480   4.8517   5.7799  10.4578  21.5865  23.6670  26.1023  27.7959

          k = 0.2500 0.2500 0.2500 (   580 PWs)   bands (ev):

    -6.3720   6.9032  11.7496  11.7496  21.4057  21.4057  21.9968  28.5184

          k = 0.0000-1.0000 0.0000 (   588 PWs)   bands (ev):

     0.7809   0.7809   7.0941   7.0941  18.3672  18.3672  30.5839  30.5839

          k =-0.2500-0.7500-0.2500 (   584 PWs)   bands (ev):

    -1.9432   2.6847   6.7252   8.5481  19.6931  25.0930  26.5091  27.1820

          k =-0.5000-1.0000 0.0000 (   604 PWs)   bands (ev):

     1.6621   1.6621   4.9679   4.9679  24.1460  24.1460  26.2102  26.2102

          k =-0.7500-0.7500-0.2500 (   584 PWs)   bands (ev):

    -1.9432   2.6847   6.7252   8.5481  19.6931  25.0930  26.5091  27.1820

          k = 0.2500-0.2500-0.2500 (   580 PWs)   bands (ev):

    -6.3720   6.9032  11.7496  11.7496  21.4057  21.4057  21.9968  28.5184

          k = 0.0000 0.0000-0.5000 (   576 PWs)   bands (ev):

    -5.7910   9.1310   9.3150   9.3150  18.0630  23.9431  25.2762  25.2762

          k = 0.2500-0.2500 0.2500 (   580 PWs)   bands (ev):

    -6.3720   6.9032  11.7496  11.7496  21.4057  21.4057  21.9968  28.5184

          k = 0.0000 0.0000 0.0000 (   561 PWs)   bands (ev):

    -8.1281  13.5310  13.5310  13.5310  19.1716  19.1716  19.1716  27.6020

          k =-0.2500-0.2500-0.2500 (   580 PWs)   bands (ev):

    -6.3720   6.9032  11.7496  11.7496  21.4057  21.4057  21.9968  28.5184

          k =-0.5000 0.0000-0.5000 (   590 PWs)   bands (ev):

    -3.5480   4.8517   5.7799  10.4578  21.5865  23.6670  26.1023  27.7959

          k =-0.5000 0.5000 0.5000 (   580 PWs)   bands (ev):

    -2.1041  -0.0861  10.6783  10.6783  22.0633  22.0633  22.9283  29.2327

          k =-0.7500 0.7500 0.2500 (   584 PWs)   bands (ev):

    -1.9432   2.6847   6.7252   8.5481  19.6931  25.0930  26.5091  27.1820

          k = 0.0000 0.0000 0.5000 (   576 PWs)   bands (ev):

    -5.7910   9.1310   9.3150   9.3150  18.0630  23.9431  25.2762  25.2762

          k =-0.2500 0.2500 0.2500 (   580 PWs)   bands (ev):

    -6.3720   6.9032  11.7496  11.7496  21.4057  21.4057  21.9968  28.5184

          k =-0.7500 0.7500 0.2500 (   584 PWs)   bands (ev):

    -1.9432   2.6847   6.7252   8.5481  19.6931  25.0930  26.5091  27.1820

          k =-1.0000 1.0000 0.0000 (   588 PWs)   bands (ev):

     0.7809   0.7809   7.0941   7.0941  18.3672  18.3672  30.5839  30.5839

          k =-0.7500 0.7500-0.2500 (   584 PWs)   bands (ev):

    -1.9432   2.6847   6.7252   8.5481  19.6931  25.0930  26.5091  27.1820

          k =-1.0000 1.0000-0.5000 (   576 PWs)   bands (ev):

    -5.7910   9.1310   9.3150   9.3150  18.0630  23.9431  25.2762  25.2762

          k =-0.7500 0.2500 0.7500 (   584 PWs)   bands (ev):

    -1.9432   2.6847   6.7252   8.5481  19.6931  25.0930  26.5091  27.1820

          k =-1.0000 0.5000 0.5000 (   590 PWs)   bands (ev):

    -3.5480   4.8517   5.7799  10.4578  21.5865  23.6670  26.1023  27.7959

          k = 0.7500 0.2500 0.7500 (   584 PWs)   bands (ev):

    -1.9432   2.6847   6.7252   8.5481  19.6931  25.0930  26.5091  27.1820

          k = 0.5000 0.5000 0.5000 (   580 PWs)   bands (ev):

    -2.1041  -0.0861  10.6783  10.6783  22.0633  22.0633  22.9283  29.2327

          k = 0.7500-0.2500-0.7500 (   584 PWs)   bands (ev):

    -1.9432   2.6847   6.7252   8.5481  19.6931  25.0930  26.5091  27.1820

          k = 0.5000 0.0000-1.0000 (   604 PWs)   bands (ev):

     1.6621   1.6621   4.9679   4.9679  24.1460  24.1460  26.2102  26.2102

          k =-0.5000 0.5000 0.0000 (   590 PWs)   bands (ev):

    -3.5480   4.8517   5.7799  10.4578  21.5865  23.6670  26.1023  27.7959

          k =-0.7500 0.7500-0.2500 (   584 PWs)   bands (ev):

    -1.9432   2.6847   6.7252   8.5481  19.6931  25.0930  26.5091  27.1820

          k =-0.5000 0.0000 0.5000 (   590 PWs)   bands (ev):

    -3.5480   4.8517   5.7799  10.4578  21.5865  23.6670  26.1023  27.7959

          k =-0.7500 0.2500 0.2500 (   584 PWs)   bands (ev):

    -1.9432   2.6847   6.7252   8.5481  19.6931  25.0930  26.5091  27.1820

     highest occupied, lowest unoccupied level (ev):    13.5310   18.0630

     Writing output data file c.save

                                                                                

     bravais-lattice index     =            2
     lattice parameter (alat)  =       6.6750  a.u.
     unit-cell volume          =      74.3522 (a.u.)^3
     number of atoms/cell      =            2
     number of atomic types    =            1
     kinetic-energy cut-off    =      60.0000  Ry
     charge density cut-off    =     240.0000  Ry
     convergence threshold     =      1.0E-24
     beta                      =       0.7000
     number of iterations used =            4
     Exchange-correlation      = PZ ( 1  1  0  0 0 0)


     celldm(1)=    6.67500  celldm(2)=    0.00000  celldm(3)=    0.00000
     celldm(4)=    0.00000  celldm(5)=    0.00000  celldm(6)=    0.00000

     crystal axes: (cart. coord. in units of alat)
               a(1) = ( -0.5000  0.0000  0.5000 )  
               a(2) = (  0.0000  0.5000  0.5000 )  
               a(3) = ( -0.5000  0.5000  0.0000 )  

     reciprocal axes: (cart. coord. in units 2 pi/alat)
               b(1) = ( -1.0000 -1.0000  1.0000 )  
               b(2) = (  1.0000  1.0000  1.0000 )  
               b(3) = ( -1.0000  1.0000 -1.0000 )  


     Atoms inside the unit cell: 

     Cartesian axes

     site n.  atom      mass           positions (alat units)
        1     C   12.0110   tau(    1) = (    0.00000    0.00000    0.00000  )
        2     C   12.0110   tau(    2) = (   -0.25000    0.25000    0.25000  )

     Computing dynamical matrix for 
                    q = (  -0.2500000   0.2500000  -0.2500000 )
 
      6 Sym.Ops. (no q -> -q+G )


     G cutoff =  270.8657  (     60 G-vectors)     FFT grid: ( 24, 24, 24)
     number of k points=    40

     PseudoPot. # 1 for  C read from file:
     ../C.pz-mt.fhi.UPF
     MD5 check sum: b7c38bc33a0cf75f44be89b84470f298
     Pseudo is Norm-conserving, Zval =  4.0
     Generated using FHI98PP, converted with fhi2upf.x v.5.0.2
     Using radial grid of  461 points,  2 beta functions with: 
                l(1) =   0
                l(2) =   1

     Mode symmetry, C_3v (3m)   point group:


     Atomic displacements:
     There are   4 irreducible representations

     Representation     1      1 modes -A_1  L_1  To be done

     Representation     2      1 modes -A_1  L_1  To be done

     Representation     3      2 modes -E    L_3  To be done

     Representation     4      2 modes -E    L_3  To be done



     Alpha used in Ewald sum =   2.5000
     PHONON       :    14.24s CPU        18.92s WALL



     Representation #  1 mode #   1

     Self-consistent Calculation

      iter #   1 total cpu time :    19.3 secs   av.it.:   6.8
      thresh= 1.000E-02 alpha_mix =  0.700 |ddv_scf|^2 =  2.551E-04

      iter #   2 total cpu time :    19.9 secs   av.it.:   8.6
      thresh= 1.597E-03 alpha_mix =  0.700 |ddv_scf|^2 =  9.395E-04

      iter #   3 total cpu time :    20.0 secs   av.it.:   7.5
      thresh= 3.065E-03 alpha_mix =  0.700 |ddv_scf|^2 =  2.539E-08

      iter #   4 total cpu time :    20.2 secs   av.it.:   9.5
      thresh= 1.594E-05 alpha_mix =  0.700 |ddv_scf|^2 =  4.846E-09

      iter #   5 total cpu time :    20.3 secs   av.it.:   9.1
      thresh= 6.961E-06 alpha_mix =  0.700 |ddv_scf|^2 =  1.624E-11

      iter #   6 total cpu time :    20.4 secs   av.it.:   9.4
      thresh= 4.030E-07 alpha_mix =  0.700 |ddv_scf|^2 =  3.003E-12

      iter #   7 total cpu time :    20.6 secs   av.it.:   8.8
      thresh= 1.733E-07 alpha_mix =  0.700 |ddv_scf|^2 =  5.354E-12

      iter #   8 total cpu time :    20.7 secs   av.it.:   8.3
      thresh= 2.314E-07 alpha_mix =  0.700 |ddv_scf|^2 =  3.717E-13

      iter #   9 total cpu time :    20.8 secs   av.it.:   8.2
      thresh= 6.097E-08 alpha_mix =  0.700 |ddv_scf|^2 =  1.094E-13

      iter #  10 total cpu time :    21.1 secs   av.it.:   8.2
      thresh= 3.307E-08 alpha_mix =  0.700 |ddv_scf|^2 =  7.019E-16

      iter #  11 total cpu time :    21.6 secs   av.it.:   8.7
      thresh= 2.649E-09 alpha_mix =  0.700 |ddv_scf|^2 =  9.070E-18

      iter #  12 total cpu time :    21.9 secs   av.it.:   9.2
      thresh= 3.012E-10 alpha_mix =  0.700 |ddv_scf|^2 =  2.950E-18

      iter #  13 total cpu time :    22.2 secs   av.it.:   8.8
      thresh= 1.718E-10 alpha_mix =  0.700 |ddv_scf|^2 =  1.043E-19

      iter #  14 total cpu time :    22.5 secs   av.it.:   9.1
      thresh= 3.230E-11 alpha_mix =  0.700 |ddv_scf|^2 =  1.490E-20

      iter #  15 total cpu time :    22.7 secs   av.it.:   8.8
      thresh= 1.221E-11 alpha_mix =  0.700 |ddv_scf|^2 =  9.335E-23

      iter #  16 total cpu time :    23.2 secs   av.it.:   9.4
      thresh= 9.662E-13 alpha_mix =  0.700 |ddv_scf|^2 =  2.106E-23

      iter #  17 total cpu time :    23.5 secs   av.it.:   8.8
      thresh= 4.589E-13 alpha_mix =  0.700 |ddv_scf|^2 =  9.937E-24

      iter #  18 total cpu time :    24.1 secs   av.it.:   8.3
      thresh= 3.152E-13 alpha_mix =  0.700 |ddv_scf|^2 =  3.860E-25

     End of self-consistent calculation

     Convergence has been achieved 


     Representation #  2 mode #   2

     Self-consistent Calculation

      iter #   1 total cpu time :    24.5 secs   av.it.:   6.8
      thresh= 1.000E-02 alpha_mix =  0.700 |ddv_scf|^2 =  2.552E-04

      iter #   2 total cpu time :    24.7 secs   av.it.:   8.6
      thresh= 1.597E-03 alpha_mix =  0.700 |ddv_scf|^2 =  9.396E-04

      iter #   3 total cpu time :    24.8 secs   av.it.:   7.5
      thresh= 3.065E-03 alpha_mix =  0.700 |ddv_scf|^2 =  2.532E-08

      iter #   4 total cpu time :    25.0 secs   av.it.:   9.5
      thresh= 1.591E-05 alpha_mix =  0.700 |ddv_scf|^2 =  4.775E-09

      iter #   5 total cpu time :    25.1 secs   av.it.:   9.1
      thresh= 6.910E-06 alpha_mix =  0.700 |ddv_scf|^2 =  1.509E-11

      iter #   6 total cpu time :    25.2 secs   av.it.:   9.7
      thresh= 3.884E-07 alpha_mix =  0.700 |ddv_scf|^2 =  1.408E-12

      iter #   7 total cpu time :    25.4 secs   av.it.:   9.2
      thresh= 1.186E-07 alpha_mix =  0.700 |ddv_scf|^2 =  2.889E-12

      iter #   8 total cpu time :    25.5 secs   av.it.:   8.1
      thresh= 1.700E-07 alpha_mix =  0.700 |ddv_scf|^2 =  4.637E-13

      iter #   9 total cpu time :    25.6 secs   av.it.:   7.8
      thresh= 6.809E-08 alpha_mix =  0.700 |ddv_scf|^2 =  1.067E-13

      iter #  10 total cpu time :    25.7 secs   av.it.:   8.0
      thresh= 3.266E-08 alpha_mix =  0.700 |ddv_scf|^2 =  5.989E-16

      iter #  11 total cpu time :    25.8 secs   av.it.:   8.7
      thresh= 2.447E-09 alpha_mix =  0.700 |ddv_scf|^2 =  8.986E-18

      iter #  12 total cpu time :    26.0 secs   av.it.:   9.2
      thresh= 2.998E-10 alpha_mix =  0.700 |ddv_scf|^2 =  2.480E-18

      iter #  13 total cpu time :    26.3 secs   av.it.:   8.8
      thresh= 1.575E-10 alpha_mix =  0.700 |ddv_scf|^2 =  1.447E-19

      iter #  14 total cpu time :    26.6 secs   av.it.:   9.0
      thresh= 3.804E-11 alpha_mix =  0.700 |ddv_scf|^2 =  1.106E-20

      iter #  15 total cpu time :    26.8 secs   av.it.:   8.4
      thresh= 1.052E-11 alpha_mix =  0.700 |ddv_scf|^2 =  1.345E-22

      iter #  16 total cpu time :    27.0 secs   av.it.:   8.7
      thresh= 1.160E-12 alpha_mix =  0.700 |ddv_scf|^2 =  1.022E-23

      iter #  17 total cpu time :    27.2 secs   av.it.:   8.8
      thresh= 3.196E-13 alpha_mix =  0.700 |ddv_scf|^2 =  1.158E-23

      iter #  18 total cpu time :    27.6 secs   av.it.:   8.5
      thresh= 3.403E-13 alpha_mix =  0.700 |ddv_scf|^2 =  4.366E-25

     End of self-consistent calculation

     Convergence has been achieved 


     Representation #  3 modes #   3  4

     Self-consistent Calculation

      iter #   1 total cpu time :    28.2 secs   av.it.:   6.1
      thresh= 1.000E-02 alpha_mix =  0.700 |ddv_scf|^2 =  1.227E-07

      iter #   2 total cpu time :    28.5 secs   av.it.:  10.2
      thresh= 3.503E-05 alpha_mix =  0.700 |ddv_scf|^2 =  1.798E-10

      iter #   3 total cpu time :    28.9 secs   av.it.:  10.1
      thresh= 1.341E-06 alpha_mix =  0.700 |ddv_scf|^2 =  7.251E-12

      iter #   4 total cpu time :    29.2 secs   av.it.:   9.8
      thresh= 2.693E-07 alpha_mix =  0.700 |ddv_scf|^2 =  2.463E-13

      iter #   5 total cpu time :    29.6 secs   av.it.:   9.6
      thresh= 4.963E-08 alpha_mix =  0.700 |ddv_scf|^2 =  7.213E-16

      iter #   6 total cpu time :    30.1 secs   av.it.:  10.2
      thresh= 2.686E-09 alpha_mix =  0.700 |ddv_scf|^2 =  2.051E-18

      iter #   7 total cpu time :    31.6 secs   av.it.:  10.2
      thresh= 1.432E-10 alpha_mix =  0.700 |ddv_scf|^2 =  9.486E-20

      iter #   8 total cpu time :    33.1 secs   av.it.:  10.5
      thresh= 3.080E-11 alpha_mix =  0.700 |ddv_scf|^2 =  3.146E-22

      iter #   9 total cpu time :    34.4 secs   av.it.:  10.1
      thresh= 1.774E-12 alpha_mix =  0.700 |ddv_scf|^2 =  7.052E-25

     End of self-consistent calculation

     Convergence has been achieved 


     Representation #  4 modes #   5  6

     Self-consistent Calculation

      iter #   1 total cpu time :    35.0 secs   av.it.:   6.2
      thresh= 1.000E-02 alpha_mix =  0.700 |ddv_scf|^2 =  1.227E-07

      iter #   2 total cpu time :    35.3 secs   av.it.:  10.5
      thresh= 3.503E-05 alpha_mix =  0.700 |ddv_scf|^2 =  1.790E-10

      iter #   3 total cpu time :    35.6 secs   av.it.:  10.5
      thresh= 1.338E-06 alpha_mix =  0.700 |ddv_scf|^2 =  7.248E-12

      iter #   4 total cpu time :    35.9 secs   av.it.:  10.1
      thresh= 2.692E-07 alpha_mix =  0.700 |ddv_scf|^2 =  2.451E-13

      iter #   5 total cpu time :    36.8 secs   av.it.:   9.7
      thresh= 4.950E-08 alpha_mix =  0.700 |ddv_scf|^2 =  7.216E-16

      iter #   6 total cpu time :    37.2 secs   av.it.:  10.4
      thresh= 2.686E-09 alpha_mix =  0.700 |ddv_scf|^2 =  2.053E-18

      iter #   7 total cpu time :    37.7 secs   av.it.:  10.6
      thresh= 1.433E-10 alpha_mix =  0.700 |ddv_scf|^2 =  9.482E-20

      iter #   8 total cpu time :    38.0 secs   av.it.:  10.8
      thresh= 3.079E-11 alpha_mix =  0.700 |ddv_scf|^2 =  3.143E-22

      iter #   9 total cpu time :    38.5 secs   av.it.:  10.4
      thresh= 1.773E-12 alpha_mix =  0.700 |ddv_scf|^2 =  7.566E-25

     End of self-consistent calculation

     Convergence has been achieved 
 
     Number of q in the star =    8
     List of q in the star:
          1  -0.250000000   0.250000000  -0.250000000
          2   0.250000000  -0.250000000  -0.250000000
          3   0.250000000  -0.250000000   0.250000000
          4   0.250000000   0.250000000   0.250000000
          5  -0.250000000  -0.250000000  -0.250000000
          6  -0.250000000  -0.250000000   0.250000000
          7  -0.250000000   0.250000000   0.250000000
          8   0.250000000   0.250000000  -0.250000000

     Diagonalizing the dynamical matrix

     q = (   -0.250000000   0.250000000  -0.250000000 ) 

 **************************************************************************
     freq (    1) =      11.342692 [THz] =     378.351477 [cm-1]
     freq (    2) =      11.342692 [THz] =     378.351477 [cm-1]
     freq (    3) =      20.293923 [THz] =     676.932411 [cm-1]
     freq (    4) =      38.069089 [THz] =    1269.848139 [cm-1]
     freq (    5) =      38.069089 [THz] =    1269.848139 [cm-1]
     freq (    6) =      39.868805 [THz] =    1329.880187 [cm-1]
 **************************************************************************

     Mode symmetry, C_3v (3m)   point group:

     freq (  1 -  2) =        378.4  [cm-1]   --> E    L_3           
     freq (  3 -  3) =        676.9  [cm-1]   --> A_1  L_1           
     freq (  4 -  5) =       1269.8  [cm-1]   --> E    L_3           
     freq (  6 -  6) =       1329.9  [cm-1]   --> A_1  L_1           

     Calculation of q =    0.5000000  -0.5000000   0.5000000

   Info: using nr1, nr2, nr3 values from input

   Info: using nr1, nr2, nr3 values from input
 
     Parallelization info
     --------------------
     sticks:   dense  smooth     PW     G-vecs:    dense   smooth      PW
     Min           4       4      1                   56       56      11
     Max           5       5      2                   60       60      15
     Sum         367     367    139                 4645     4645    1067
 


     bravais-lattice index     =            2
     lattice parameter (alat)  =       6.6750  a.u.
     unit-cell volume          =      74.3522 (a.u.)^3
     number of atoms/cell      =            2
     number of atomic types    =            1
     number of electrons       =         8.00
     number of Kohn-Sham states=            8
     kinetic-energy cutoff     =      60.0000  Ry
     charge density cutoff     =     240.0000  Ry
     Exchange-correlation      = PZ ( 1  1  0  0 0 0)

     celldm(1)=   6.675000  celldm(2)=   0.000000  celldm(3)=   0.000000
     celldm(4)=   0.000000  celldm(5)=   0.000000  celldm(6)=   0.000000

     crystal axes: (cart. coord. in units of alat)
               a(1) = (  -0.500000   0.000000   0.500000 )  
               a(2) = (   0.000000   0.500000   0.500000 )  
               a(3) = (  -0.500000   0.500000   0.000000 )  

     reciprocal axes: (cart. coord. in units 2 pi/alat)
               b(1) = ( -1.000000 -1.000000  1.000000 )  
               b(2) = (  1.000000  1.000000  1.000000 )  
               b(3) = ( -1.000000  1.000000 -1.000000 )  


     PseudoPot. # 1 for  C read from file:
     ../C.pz-mt.fhi.UPF
     MD5 check sum: b7c38bc33a0cf75f44be89b84470f298
     Pseudo is Norm-conserving, Zval =  4.0
     Generated using FHI98PP, converted with fhi2upf.x v.5.0.2
     Using radial grid of  461 points,  2 beta functions with: 
                l(1) =   0
                l(2) =   1

     atomic species   valence    mass     pseudopotential
        C              4.00    12.01100      C( 1.00)

     48 Sym. Ops., with inversion, found



   Cartesian axes

     site n.     atom                  positions (alat units)
         1           C   tau(   1) = (   0.0000000   0.0000000   0.0000000  )
         2           C   tau(   2) = (  -0.2500000   0.2500000   0.2500000  )

     number of k points=    26
                       cart. coord. in units 2pi/alat
        k(    1) = (   0.0000000   0.0000000   0.0000000), wk =   0.0312500
        k(    2) = (   0.5000000  -0.5000000   0.5000000), wk =   0.0000000
        k(    3) = (  -0.2500000   0.2500000  -0.2500000), wk =   0.0625000
        k(    4) = (   0.2500000  -0.2500000   0.2500000), wk =   0.0000000
        k(    5) = (   0.5000000  -0.5000000   0.5000000), wk =   0.0312500
        k(    6) = (   1.0000000  -1.0000000   1.0000000), wk =   0.0000000
        k(    7) = (   0.0000000   0.5000000   0.0000000), wk =   0.1875000
        k(    8) = (   0.5000000   0.0000000   0.5000000), wk =   0.0000000
        k(    9) = (   0.7500000  -0.2500000   0.7500000), wk =   0.1875000
        k(   10) = (   1.2500000  -0.7500000   1.2500000), wk =   0.0000000
        k(   11) = (   0.5000000   0.0000000   0.5000000), wk =   0.1875000
        k(   12) = (   1.0000000  -0.5000000   1.0000000), wk =   0.0000000
        k(   13) = (   0.0000000  -1.0000000   0.0000000), wk =   0.0937500
        k(   14) = (   0.5000000  -1.5000000   0.5000000), wk =   0.0000000
        k(   15) = (  -0.5000000  -1.0000000   0.0000000), wk =   0.1875000
        k(   16) = (   0.0000000  -1.5000000   0.5000000), wk =   0.0000000
        k(   17) = (  -0.2500000  -0.2500000  -0.2500000), wk =   0.1875000
        k(   18) = (   0.2500000  -0.7500000   0.2500000), wk =   0.0000000
        k(   19) = (   0.5000000   0.5000000   0.5000000), wk =   0.0937500
        k(   20) = (   1.0000000   0.0000000   1.0000000), wk =   0.0000000
        k(   21) = (   0.7500000   0.2500000   0.7500000), wk =   0.1875000
        k(   22) = (   1.2500000  -0.2500000   1.2500000), wk =   0.0000000
        k(   23) = (  -0.7500000   0.2500000   0.7500000), wk =   0.3750000
        k(   24) = (  -0.2500000  -0.2500000   1.2500000), wk =   0.0000000
        k(   25) = (  -0.5000000   0.0000000   0.5000000), wk =   0.1875000
        k(   26) = (   0.0000000  -0.5000000   1.0000000), wk =   0.0000000

     Dense  grid:     4645 G-vectors     FFT dimensions: (  24,  24,  24)

     Estimated max dynamical RAM per process >       0.16MB

     Estimated total allocated dynamical RAM >      12.76MB
     Message from routine sym_rho_init:
     some processors have no G-vectors for symmetrization
     Message from routine sym_rho_init:
     some processors have no G-vectors for symmetrization
     Message from routine sym_rho_init:
     some processors have no G-vectors for symmetrization
     Message from routine sym_rho_init:
     some processors have no G-vectors for symmetrization
     Message from routine sym_rho_init:
     some processors have no G-vectors for symmetrization
     Message from routine sym_rho_init:
     some processors have no G-vectors for symmetrization
     Message from routine sym_rho_init:
     some processors have no G-vectors for symmetrization
     Message from routine sym_rho_init:
     some processors have no G-vectors for symmetrization
     Message from routine sym_rho_init:
     some processors have no G-vectors for symmetrization
     Message from routine sym_rho_init:
     some processors have no G-vectors for symmetrization
     Message from routine sym_rho_init:
     some processors have no G-vectors for symmetrization
     Message from routine sym_rho_init:
     some processors have no G-vectors for symmetrization
     Message from routine sym_rho_init:
     some processors have no G-vectors for symmetrization
     Message from routine sym_rho_init:
     some processors have no G-vectors for symmetrization
     Message from routine sym_rho_init:
     some processors have no G-vectors for symmetrization
     Message from routine sym_rho_init:
     some processors have no G-vectors for symmetrization
     Message from routine sym_rho_init:
     some processors have no G-vectors for symmetrization
     Message from routine sym_rho_init:
     some processors have no G-vectors for symmetrization
     Message from routine sym_rho_init:
     some processors have no G-vectors for symmetrization
     Message from routine sym_rho_init:
     some processors have no G-vectors for symmetrization
     Message from routine sym_rho_init:
     some processors have no G-vectors for symmetrization
     Message from routine sym_rho_init:
     some processors have no G-vectors for symmetrization
     Message from routine sym_rho_init:
     some processors have no G-vectors for symmetrization
     Message from routine sym_rho_init:
     some processors have no G-vectors for symmetrization
     Message from routine sym_rho_init:
     some processors have no G-vectors for symmetrization
     Message from routine sym_rho_init:
     some processors have no G-vectors for symmetrization
     Message from routine sym_rho_init:
     some processors have no G-vectors for symmetrization
     Message from routine sym_rho_init:
     some processors have no G-vectors for symmetrization
     Message from routine sym_rho_init:
     some processors have no G-vectors for symmetrization
     Message from routine sym_rho_init:
     some processors have no G-vectors for symmetrization
     Message from routine sym_rho_init:
     some processors have no G-vectors for symmetrization
     Message from routine sym_rho_init:
     some processors have no G-vectors for symmetrization
     Message from routine sym_rho_init:
     some processors have no G-vectors for symmetrization
     Message from routine sym_rho_init:
     some processors have no G-vectors for symmetrization
     Message from routine sym_rho_init:
     some processors have no G-vectors for symmetrization
     Message from routine sym_rho_init:
     some processors have no G-vectors for symmetrization
     Message from routine sym_rho_init:
     some processors have no G-vectors for symmetrization
     Message from routine sym_rho_init:
     some processors have no G-vectors for symmetrization
     Message from routine sym_rho_init:
     some processors have no G-vectors for symmetrization
     Message from routine sym_rho_init:
     some processors have no G-vectors for symmetrization
     Message from routine sym_rho_init:
     some processors have no G-vectors for symmetrization
     Message from routine sym_rho_init:
     some processors have no G-vectors for symmetrization
     Message from routine sym_rho_init:
     some processors have no G-vectors for symmetrization
     Message from routine sym_rho_init:
     some processors have no G-vectors for symmetrization
     Message from routine sym_rho_init:
     some processors have no G-vectors for symmetrization
     Message from routine sym_rho_init:
     some processors have no G-vectors for symmetrization
     Message from routine sym_rho_init:
     some processors have no G-vectors for symmetrization
     Message from routine sym_rho_init:
     some processors have no G-vectors for symmetrization
     Message from routine sym_rho_init:
     some processors have no G-vectors for symmetrization
     Message from routine sym_rho_init:
     some processors have no G-vectors for symmetrization
     Message from routine sym_rho_init:
     some processors have no G-vectors for symmetrization
     Message from routine sym_rho_init:
     some processors have no G-vectors for symmetrization

     The potential is recalculated from file :
     ./_ph0/c.q_3/c.save/charge-density.dat

     Starting wfc are   18 atomic wfcs

     Band Structure Calculation
     Davidson diagonalization with overlap

     ethr =  1.25E-10,  avg # of iterations =  9.2

     total cpu time spent up to now is        2.1 secs

     End of band structure calculation

          k = 0.0000 0.0000 0.0000 (   561 PWs)   bands (ev):

    -8.1281  13.5310  13.5310  13.5310  19.1716  19.1716  19.1716  27.6020

          k = 0.5000-0.5000 0.5000 (   580 PWs)   bands (ev):

    -2.1041  -0.0861  10.6783  10.6783  22.0633  22.0633  22.9283  29.2327

          k =-0.2500 0.2500-0.2500 (   580 PWs)   bands (ev):

    -6.3720   6.9032  11.7496  11.7496  21.4057  21.4057  21.9968  28.5184

          k = 0.2500-0.2500 0.2500 (   580 PWs)   bands (ev):

    -6.3720   6.9032  11.7496  11.7496  21.4057  21.4057  21.9968  28.5184

          k = 0.5000-0.5000 0.5000 (   580 PWs)   bands (ev):

    -2.1041  -0.0861  10.6783  10.6783  22.0633  22.0633  22.9283  29.2327

          k = 1.0000-1.0000 1.0000 (   561 PWs)   bands (ev):

    -8.1281  13.5310  13.5310  13.5310  19.1716  19.1716  19.1716  27.6020

          k = 0.0000 0.5000 0.0000 (   576 PWs)   bands (ev):

    -5.7910   9.1310   9.3150   9.3150  18.0630  23.9431  25.2762  25.2762

          k = 0.5000 0.0000 0.5000 (   590 PWs)   bands (ev):

    -3.5480   4.8517   5.7799  10.4578  21.5865  23.6670  26.1023  27.7959

          k = 0.7500-0.2500 0.7500 (   584 PWs)   bands (ev):

    -1.9432   2.6847   6.7252   8.5481  19.6931  25.0930  26.5091  27.1820

          k = 1.2500-0.7500 1.2500 (   580 PWs)   bands (ev):

    -6.3720   6.9032  11.7496  11.7496  21.4057  21.4057  21.9968  28.5184

          k = 0.5000 0.0000 0.5000 (   590 PWs)   bands (ev):

    -3.5480   4.8517   5.7799  10.4578  21.5865  23.6670  26.1023  27.7959

          k = 1.0000-0.5000 1.0000 (   576 PWs)   bands (ev):

    -5.7910   9.1310   9.3150   9.3150  18.0630  23.9431  25.2762  25.2762

          k = 0.0000-1.0000 0.0000 (   588 PWs)   bands (ev):

     0.7809   0.7809   7.0941   7.0941  18.3672  18.3672  30.5839  30.5839

          k = 0.5000-1.5000 0.5000 (   580 PWs)   bands (ev):

    -2.1041  -0.0861  10.6783  10.6783  22.0633  22.0633  22.9283  29.2327

          k =-0.5000-1.0000 0.0000 (   604 PWs)   bands (ev):

     1.6621   1.6621   4.9679   4.9679  24.1460  24.1460  26.2102  26.2102

          k = 0.0000-1.5000 0.5000 (   590 PWs)   bands (ev):

    -3.5480   4.8517   5.7799  10.4578  21.5865  23.6670  26.1023  27.7959

          k =-0.2500-0.2500-0.2500 (   580 PWs)   bands (ev):

    -6.3720   6.9032  11.7496  11.7496  21.4057  21.4057  21.9968  28.5184

          k = 0.2500-0.7500 0.2500 (   584 PWs)   bands (ev):

    -1.9432   2.6847   6.7252   8.5481  19.6931  25.0930  26.5091  27.1820

          k = 0.5000 0.5000 0.5000 (   580 PWs)   bands (ev):

    -2.1041  -0.0861  10.6783  10.6783  22.0633  22.0633  22.9283  29.2327

          k = 1.0000 0.0000 1.0000 (   588 PWs)   bands (ev):

     0.7809   0.7809   7.0941   7.0941  18.3672  18.3672  30.5839  30.5839

          k = 0.7500 0.2500 0.7500 (   584 PWs)   bands (ev):

    -1.9432   2.6847   6.7252   8.5481  19.6931  25.0930  26.5091  27.1820

          k = 1.2500-0.2500 1.2500 (   584 PWs)   bands (ev):

    -1.9432   2.6847   6.7252   8.5481  19.6931  25.0930  26.5091  27.1820

          k =-0.7500 0.2500 0.7500 (   584 PWs)   bands (ev):

    -1.9432   2.6847   6.7252   8.5481  19.6931  25.0930  26.5091  27.1820

          k =-0.2500-0.2500 1.2500 (   584 PWs)   bands (ev):

    -1.9432   2.6847   6.7252   8.5481  19.6931  25.0930  26.5091  27.1820

          k =-0.5000 0.0000 0.5000 (   590 PWs)   bands (ev):

    -3.5480   4.8517   5.7799  10.4578  21.5865  23.6670  26.1023  27.7959

          k = 0.0000-0.5000 1.0000 (   604 PWs)   bands (ev):

     1.6621   1.6621   4.9679   4.9679  24.1460  24.1460  26.2102  26.2102

     highest occupied, lowest unoccupied level (ev):    13.5310   18.0630

     Writing output data file c.save

                                                                                

     bravais-lattice index     =            2
     lattice parameter (alat)  =       6.6750  a.u.
     unit-cell volume          =      74.3522 (a.u.)^3
     number of atoms/cell      =            2
     number of atomic types    =            1
     kinetic-energy cut-off    =      60.0000  Ry
     charge density cut-off    =     240.0000  Ry
     convergence threshold     =      1.0E-24
     beta                      =       0.7000
     number of iterations used =            4
     Exchange-correlation      = PZ ( 1  1  0  0 0 0)


     celldm(1)=    6.67500  celldm(2)=    0.00000  celldm(3)=    0.00000
     celldm(4)=    0.00000  celldm(5)=    0.00000  celldm(6)=    0.00000

     crystal axes: (cart. coord. in units of alat)
               a(1) = ( -0.5000  0.0000  0.5000 )  
               a(2) = (  0.0000  0.5000  0.5000 )  
               a(3) = ( -0.5000  0.5000  0.0000 )  

     reciprocal axes: (cart. coord. in units 2 pi/alat)
               b(1) = ( -1.0000 -1.0000  1.0000 )  
               b(2) = (  1.0000  1.0000  1.0000 )  
               b(3) = ( -1.0000  1.0000 -1.0000 )  


     Atoms inside the unit cell: 

     Cartesian axes

     site n.  atom      mass           positions (alat units)
        1     C   12.0110   tau(    1) = (    0.00000    0.00000    0.00000  )
        2     C   12.0110   tau(    2) = (   -0.25000    0.25000    0.25000  )

     Computing dynamical matrix for 
                    q = (   0.5000000  -0.5000000   0.5000000 )
 
     13 Sym.Ops. (with q -> -q+G )


     G cutoff =  270.8657  (     60 G-vectors)     FFT grid: ( 24, 24, 24)
     number of k points=    26

     PseudoPot. # 1 for  C read from file:
     ../C.pz-mt.fhi.UPF
     MD5 check sum: b7c38bc33a0cf75f44be89b84470f298
     Pseudo is Norm-conserving, Zval =  4.0
     Generated using FHI98PP, converted with fhi2upf.x v.5.0.2
     Using radial grid of  461 points,  2 beta functions with: 
                l(1) =   0
                l(2) =   1


     Atomic displacements:
     There are   4 irreducible representations

     Representation     1      1 modes -  To be done

     Representation     2      1 modes -  To be done

     Representation     3      2 modes -  To be done

     Representation     4      2 modes -  To be done



     Alpha used in Ewald sum =   2.5000
     PHONON       :    32.74s CPU        41.20s WALL



     Representation #  1 mode #   1

     Self-consistent Calculation

      iter #   1 total cpu time :    41.6 secs   av.it.:   6.0
      thresh= 1.000E-02 alpha_mix =  0.700 |ddv_scf|^2 =  5.337E-06

      iter #   2 total cpu time :    42.1 secs   av.it.:   8.6
      thresh= 2.310E-04 alpha_mix =  0.700 |ddv_scf|^2 =  2.227E-06

      iter #   3 total cpu time :    42.2 secs   av.it.:   8.3
      thresh= 1.492E-04 alpha_mix =  0.700 |ddv_scf|^2 =  4.904E-09

      iter #   4 total cpu time :    42.3 secs   av.it.:   8.1
      thresh= 7.003E-06 alpha_mix =  0.700 |ddv_scf|^2 =  5.346E-12

      iter #   5 total cpu time :    42.4 secs   av.it.:   8.4
      thresh= 2.312E-07 alpha_mix =  0.700 |ddv_scf|^2 =  1.264E-13

      iter #   6 total cpu time :    42.5 secs   av.it.:   8.3
      thresh= 3.555E-08 alpha_mix =  0.700 |ddv_scf|^2 =  1.493E-15

      iter #   7 total cpu time :    42.6 secs   av.it.:   8.3
      thresh= 3.864E-09 alpha_mix =  0.700 |ddv_scf|^2 =  4.311E-19

      iter #   8 total cpu time :    42.7 secs   av.it.:   8.9
      thresh= 6.566E-11 alpha_mix =  0.700 |ddv_scf|^2 =  5.475E-20

      iter #   9 total cpu time :    42.8 secs   av.it.:   8.4
      thresh= 2.340E-11 alpha_mix =  0.700 |ddv_scf|^2 =  5.452E-23

      iter #  10 total cpu time :    42.8 secs   av.it.:   8.5
      thresh= 7.384E-13 alpha_mix =  0.700 |ddv_scf|^2 =  4.448E-24

      iter #  11 total cpu time :    43.1 secs   av.it.:   9.0
      thresh= 2.109E-13 alpha_mix =  0.700 |ddv_scf|^2 =  1.987E-26

     End of self-consistent calculation

     Convergence has been achieved 


     Representation #  2 mode #   2

     Self-consistent Calculation

      iter #   1 total cpu time :    43.5 secs   av.it.:   6.6
      thresh= 1.000E-02 alpha_mix =  0.700 |ddv_scf|^2 =  5.368E-05

      iter #   2 total cpu time :    43.7 secs   av.it.:   8.9
      thresh= 7.327E-04 alpha_mix =  0.700 |ddv_scf|^2 =  5.485E-05

      iter #   3 total cpu time :    43.8 secs   av.it.:   8.4
      thresh= 7.406E-04 alpha_mix =  0.700 |ddv_scf|^2 =  1.108E-07

      iter #   4 total cpu time :    43.9 secs   av.it.:   8.8
      thresh= 3.328E-05 alpha_mix =  0.700 |ddv_scf|^2 =  4.463E-11

      iter #   5 total cpu time :    44.0 secs   av.it.:   9.2
      thresh= 6.680E-07 alpha_mix =  0.700 |ddv_scf|^2 =  2.904E-12

      iter #   6 total cpu time :    44.1 secs   av.it.:   8.7
      thresh= 1.704E-07 alpha_mix =  0.700 |ddv_scf|^2 =  2.808E-14

      iter #   7 total cpu time :    44.2 secs   av.it.:   9.0
      thresh= 1.676E-08 alpha_mix =  0.700 |ddv_scf|^2 =  4.449E-17

      iter #   8 total cpu time :    44.2 secs   av.it.:   8.3
      thresh= 6.670E-10 alpha_mix =  0.700 |ddv_scf|^2 =  4.079E-18

      iter #   9 total cpu time :    44.4 secs   av.it.:   9.2
      thresh= 2.020E-10 alpha_mix =  0.700 |ddv_scf|^2 =  5.596E-20

      iter #  10 total cpu time :    44.7 secs   av.it.:   8.5
      thresh= 2.366E-11 alpha_mix =  0.700 |ddv_scf|^2 =  1.758E-22

      iter #  11 total cpu time :    45.3 secs   av.it.:   8.6
      thresh= 1.326E-12 alpha_mix =  0.700 |ddv_scf|^2 =  2.426E-23

      iter #  12 total cpu time :    45.7 secs   av.it.:   8.7
      thresh= 4.925E-13 alpha_mix =  0.700 |ddv_scf|^2 =  2.944E-26

     End of self-consistent calculation

     Convergence has been achieved 


     Representation #  3 modes #   3  4

     Self-consistent Calculation

      iter #   1 total cpu time :    47.0 secs   av.it.:   6.0
      thresh= 1.000E-02 alpha_mix =  0.700 |ddv_scf|^2 =  3.923E-08

      iter #   2 total cpu time :    47.2 secs   av.it.:   9.9
      thresh= 1.981E-05 alpha_mix =  0.700 |ddv_scf|^2 =  1.266E-10

      iter #   3 total cpu time :    47.4 secs   av.it.:   9.8
      thresh= 1.125E-06 alpha_mix =  0.700 |ddv_scf|^2 =  5.646E-12

      iter #   4 total cpu time :    47.6 secs   av.it.:   9.8
      thresh= 2.376E-07 alpha_mix =  0.700 |ddv_scf|^2 =  1.380E-14

      iter #   5 total cpu time :    47.8 secs   av.it.:  10.1
      thresh= 1.175E-08 alpha_mix =  0.700 |ddv_scf|^2 =  2.146E-17

      iter #   6 total cpu time :    48.0 secs   av.it.:  10.2
      thresh= 4.633E-10 alpha_mix =  0.700 |ddv_scf|^2 =  3.489E-19

      iter #   7 total cpu time :    48.2 secs   av.it.:  10.3
      thresh= 5.907E-11 alpha_mix =  0.700 |ddv_scf|^2 =  9.771E-22

      iter #   8 total cpu time :    48.4 secs   av.it.:   9.8
      thresh= 3.126E-12 alpha_mix =  0.700 |ddv_scf|^2 =  3.364E-24

      iter #   9 total cpu time :    48.8 secs   av.it.:  10.2
      thresh= 1.834E-13 alpha_mix =  0.700 |ddv_scf|^2 =  1.377E-26

     End of self-consistent calculation

     Convergence has been achieved 


     Representation #  4 modes #   5  6

     Self-consistent Calculation

      iter #   1 total cpu time :    49.3 secs   av.it.:   5.9
      thresh= 1.000E-02 alpha_mix =  0.700 |ddv_scf|^2 =  2.503E-07

      iter #   2 total cpu time :    50.5 secs   av.it.:   9.6
      thresh= 5.003E-05 alpha_mix =  0.700 |ddv_scf|^2 =  4.825E-10

      iter #   3 total cpu time :    50.8 secs   av.it.:   9.6
      thresh= 2.196E-06 alpha_mix =  0.700 |ddv_scf|^2 =  8.812E-12

      iter #   4 total cpu time :    51.3 secs   av.it.:   9.6
      thresh= 2.969E-07 alpha_mix =  0.700 |ddv_scf|^2 =  3.906E-14

      iter #   5 total cpu time :    51.7 secs   av.it.:   9.6
      thresh= 1.976E-08 alpha_mix =  0.700 |ddv_scf|^2 =  1.281E-17

      iter #   6 total cpu time :    52.1 secs   av.it.:   9.8
      thresh= 3.579E-10 alpha_mix =  0.700 |ddv_scf|^2 =  6.891E-19

      iter #   7 total cpu time :    52.5 secs   av.it.:  10.2
      thresh= 8.301E-11 alpha_mix =  0.700 |ddv_scf|^2 =  8.512E-22

      iter #   8 total cpu time :    52.8 secs   av.it.:   9.2
      thresh= 2.918E-12 alpha_mix =  0.700 |ddv_scf|^2 =  7.231E-23

      iter #   9 total cpu time :    53.2 secs   av.it.:   9.7
      thresh= 8.503E-13 alpha_mix =  0.700 |ddv_scf|^2 =  9.703E-27

     End of self-consistent calculation

     Convergence has been achieved 
 
     Number of q in the star =    4
     List of q in the star:
          1   0.500000000  -0.500000000   0.500000000
          2   0.500000000   0.500000000   0.500000000
          3  -0.500000000   0.500000000   0.500000000
          4   0.500000000   0.500000000  -0.500000000

     Diagonalizing the dynamical matrix

     q = (    0.500000000  -0.500000000   0.500000000 ) 

 **************************************************************************
     freq (    1) =      15.805683 [THz] =     527.220821 [cm-1]
     freq (    2) =      15.805683 [THz] =     527.220821 [cm-1]
     freq (    3) =      31.148705 [THz] =    1039.008956 [cm-1]
     freq (    4) =      36.720069 [THz] =    1224.849644 [cm-1]
     freq (    5) =      36.720069 [THz] =    1224.849644 [cm-1]
     freq (    6) =      37.930867 [THz] =    1265.237540 [cm-1]
 **************************************************************************

     Calculation of q =    0.0000000   0.5000000   0.0000000

   Info: using nr1, nr2, nr3 values from input

   Info: using nr1, nr2, nr3 values from input
 
     Parallelization info
     --------------------
     sticks:   dense  smooth     PW     G-vecs:    dense   smooth      PW
     Min           4       4      1                   56       56       9
     Max           5       5      2                   60       60      14
     Sum         367     367    121                 4645     4645     941
 


     bravais-lattice index     =            2
     lattice parameter (alat)  =       6.6750  a.u.
     unit-cell volume          =      74.3522 (a.u.)^3
     number of atoms/cell      =            2
     number of atomic types    =            1
     number of electrons       =         8.00
     number of Kohn-Sham states=            8
     kinetic-energy cutoff     =      60.0000  Ry
     charge density cutoff     =     240.0000  Ry
     Exchange-correlation      = PZ ( 1  1  0  0 0 0)

     celldm(1)=   6.675000  celldm(2)=   0.000000  celldm(3)=   0.000000
     celldm(4)=   0.000000  celldm(5)=   0.000000  celldm(6)=   0.000000

     crystal axes: (cart. coord. in units of alat)
               a(1) = (  -0.500000   0.000000   0.500000 )  
               a(2) = (   0.000000   0.500000   0.500000 )  
               a(3) = (  -0.500000   0.500000   0.000000 )  

     reciprocal axes: (cart. coord. in units 2 pi/alat)
               b(1) = ( -1.000000 -1.000000  1.000000 )  
               b(2) = (  1.000000  1.000000  1.000000 )  
               b(3) = ( -1.000000  1.000000 -1.000000 )  


     PseudoPot. # 1 for  C read from file:
     ../C.pz-mt.fhi.UPF
     MD5 check sum: b7c38bc33a0cf75f44be89b84470f298
     Pseudo is Norm-conserving, Zval =  4.0
     Generated using FHI98PP, converted with fhi2upf.x v.5.0.2
     Using radial grid of  461 points,  2 beta functions with: 
                l(1) =   0
                l(2) =   1

     atomic species   valence    mass     pseudopotential
        C              4.00    12.01100      C( 1.00)

     48 Sym. Ops., with inversion, found



   Cartesian axes

     site n.     atom                  positions (alat units)
         1           C   tau(   1) = (   0.0000000   0.0000000   0.0000000  )
         2           C   tau(   2) = (  -0.2500000   0.2500000   0.2500000  )

     number of k points=    36
                       cart. coord. in units 2pi/alat
        k(    1) = (   0.0000000   0.0000000   0.0000000), wk =   0.0312500
        k(    2) = (   0.0000000   0.5000000   0.0000000), wk =   0.0000000
        k(    3) = (  -0.2500000   0.2500000  -0.2500000), wk =   0.1250000
        k(    4) = (  -0.2500000   0.7500000  -0.2500000), wk =   0.0000000
        k(    5) = (   0.5000000  -0.5000000   0.5000000), wk =   0.1250000
        k(    6) = (   0.5000000   0.0000000   0.5000000), wk =   0.0000000
        k(    7) = (   0.0000000   0.5000000   0.0000000), wk =   0.0312500
        k(    8) = (   0.0000000   1.0000000   0.0000000), wk =   0.0000000
        k(    9) = (   0.7500000  -0.2500000   0.7500000), wk =   0.1250000
        k(   10) = (   0.7500000   0.2500000   0.7500000), wk =   0.0000000
        k(   11) = (   0.5000000   0.0000000   0.5000000), wk =   0.1250000
        k(   12) = (   0.5000000   0.5000000   0.5000000), wk =   0.0000000
        k(   13) = (   0.0000000  -1.0000000   0.0000000), wk =   0.0312500
        k(   14) = (   0.0000000  -0.5000000   0.0000000), wk =   0.0000000
        k(   15) = (  -0.5000000  -1.0000000   0.0000000), wk =   0.1250000
        k(   16) = (  -0.5000000  -0.5000000   0.0000000), wk =   0.0000000
        k(   17) = (   0.2500000  -0.2500000   0.2500000), wk =   0.1250000
        k(   18) = (   0.2500000   0.2500000   0.2500000), wk =   0.0000000
        k(   19) = (   0.0000000  -0.5000000   0.0000000), wk =   0.0312500
        k(   20) = (   0.0000000   0.0000000   0.0000000), wk =   0.0000000
        k(   21) = (   0.5000000   0.0000000   0.0000000), wk =   0.1250000
        k(   22) = (   0.5000000   0.5000000   0.0000000), wk =   0.0000000
        k(   23) = (  -0.7500000   0.2500000  -0.7500000), wk =   0.1250000
        k(   24) = (  -0.7500000   0.7500000  -0.7500000), wk =   0.0000000
        k(   25) = (  -0.2500000   0.7500000  -0.7500000), wk =   0.2500000
        k(   26) = (  -0.2500000   1.2500000  -0.7500000), wk =   0.0000000
        k(   27) = (  -0.2500000  -0.7500000  -0.7500000), wk =   0.2500000
        k(   28) = (  -0.2500000  -0.2500000  -0.7500000), wk =   0.0000000
        k(   29) = (   0.0000000   0.5000000  -0.5000000), wk =   0.1250000
        k(   30) = (   0.0000000   1.0000000  -0.5000000), wk =   0.0000000
        k(   31) = (   0.0000000  -0.5000000  -0.5000000), wk =   0.1250000
        k(   32) = (   0.0000000   0.0000000  -0.5000000), wk =   0.0000000
        k(   33) = (  -1.0000000   0.0000000   0.0000000), wk =   0.0625000
        k(   34) = (  -1.0000000   0.5000000   0.0000000), wk =   0.0000000
        k(   35) = (  -1.0000000  -0.5000000   0.0000000), wk =   0.0625000
        k(   36) = (  -1.0000000   0.0000000   0.0000000), wk =   0.0000000

     Dense  grid:     4645 G-vectors     FFT dimensions: (  24,  24,  24)

     Estimated max dynamical RAM per process >       0.16MB

     Estimated total allocated dynamical RAM >      12.76MB
     Message from routine sym_rho_init:
     some processors have no G-vectors for symmetrization
     Message from routine sym_rho_init:
     some processors have no G-vectors for symmetrization
     Message from routine sym_rho_init:
     some processors have no G-vectors for symmetrization
     Message from routine sym_rho_init:
     some processors have no G-vectors for symmetrization
     Message from routine sym_rho_init:
     some processors have no G-vectors for symmetrization
     Message from routine sym_rho_init:
     some processors have no G-vectors for symmetrization
     Message from routine sym_rho_init:
     some processors have no G-vectors for symmetrization
     Message from routine sym_rho_init:
     some processors have no G-vectors for symmetrization
     Message from routine sym_rho_init:
     some processors have no G-vectors for symmetrization
     Message from routine sym_rho_init:
     some processors have no G-vectors for symmetrization
     Message from routine sym_rho_init:
     some processors have no G-vectors for symmetrization
     Message from routine sym_rho_init:
     some processors have no G-vectors for symmetrization
     Message from routine sym_rho_init:
     some processors have no G-vectors for symmetrization
     Message from routine sym_rho_init:
     some processors have no G-vectors for symmetrization
     Message from routine sym_rho_init:
     some processors have no G-vectors for symmetrization
     Message from routine sym_rho_init:
     some processors have no G-vectors for symmetrization
     Message from routine sym_rho_init:
     some processors have no G-vectors for symmetrization
     Message from routine sym_rho_init:
     some processors have no G-vectors for symmetrization
     Message from routine sym_rho_init:
     some processors have no G-vectors for symmetrization
     Message from routine sym_rho_init:
     some processors have no G-vectors for symmetrization
     Message from routine sym_rho_init:
     some processors have no G-vectors for symmetrization
     Message from routine sym_rho_init:
     some processors have no G-vectors for symmetrization
     Message from routine sym_rho_init:
     some processors have no G-vectors for symmetrization
     Message from routine sym_rho_init:
     some processors have no G-vectors for symmetrization
     Message from routine sym_rho_init:
     some processors have no G-vectors for symmetrization
     Message from routine sym_rho_init:
     some processors have no G-vectors for symmetrization
     Message from routine sym_rho_init:
     some processors have no G-vectors for symmetrization
     Message from routine sym_rho_init:
     some processors have no G-vectors for symmetrization
     Message from routine sym_rho_init:
     some processors have no G-vectors for symmetrization
     Message from routine sym_rho_init:
     some processors have no G-vectors for symmetrization
     Message from routine sym_rho_init:
     some processors have no G-vectors for symmetrization
     Message from routine sym_rho_init:
     some processors have no G-vectors for symmetrization
     Message from routine sym_rho_init:
     some processors have no G-vectors for symmetrization
     Message from routine sym_rho_init:
     some processors have no G-vectors for symmetrization
     Message from routine sym_rho_init:
     some processors have no G-vectors for symmetrization
     Message from routine sym_rho_init:
     some processors have no G-vectors for symmetrization
     Message from routine sym_rho_init:
     some processors have no G-vectors for symmetrization
     Message from routine sym_rho_init:
     some processors have no G-vectors for symmetrization
     Message from routine sym_rho_init:
     some processors have no G-vectors for symmetrization
     Message from routine sym_rho_init:
     some processors have no G-vectors for symmetrization
     Message from routine sym_rho_init:
     some processors have no G-vectors for symmetrization
     Message from routine sym_rho_init:
     some processors have no G-vectors for symmetrization
     Message from routine sym_rho_init:
     some processors have no G-vectors for symmetrization
     Message from routine sym_rho_init:
     some processors have no G-vectors for symmetrization
     Message from routine sym_rho_init:
     some processors have no G-vectors for symmetrization
     Message from routine sym_rho_init:
     some processors have no G-vectors for symmetrization
     Message from routine sym_rho_init:
     some processors have no G-vectors for symmetrization
     Message from routine sym_rho_init:
     some processors have no G-vectors for symmetrization
     Message from routine sym_rho_init:
     some processors have no G-vectors for symmetrization

     The potential is recalculated from file :
     ./_ph0/c.q_4/c.save/charge-density.dat

     Starting wfc are   18 atomic wfcs

     Band Structure Calculation
     Davidson diagonalization with overlap

     ethr =  1.25E-10,  avg # of iterations =  9.2

     total cpu time spent up to now is        3.8 secs

     End of band structure calculation

          k = 0.0000 0.0000 0.0000 (   561 PWs)   bands (ev):

    -8.1281  13.5310  13.5310  13.5310  19.1716  19.1716  19.1716  27.6020

          k = 0.0000 0.5000 0.0000 (   576 PWs)   bands (ev):

    -5.7910   9.1310   9.3150   9.3150  18.0630  23.9431  25.2762  25.2762

          k =-0.2500 0.2500-0.2500 (   580 PWs)   bands (ev):

    -6.3720   6.9032  11.7496  11.7496  21.4057  21.4057  21.9968  28.5184

          k =-0.2500 0.7500-0.2500 (   584 PWs)   bands (ev):

    -1.9432   2.6847   6.7252   8.5481  19.6931  25.0930  26.5091  27.1820

          k = 0.5000-0.5000 0.5000 (   580 PWs)   bands (ev):

    -2.1041  -0.0861  10.6783  10.6783  22.0633  22.0633  22.9283  29.2327

          k = 0.5000 0.0000 0.5000 (   590 PWs)   bands (ev):

    -3.5480   4.8517   5.7799  10.4578  21.5865  23.6670  26.1023  27.7959

          k = 0.0000 0.5000 0.0000 (   576 PWs)   bands (ev):

    -5.7910   9.1310   9.3150   9.3150  18.0630  23.9431  25.2762  25.2762

          k = 0.0000 1.0000 0.0000 (   588 PWs)   bands (ev):

     0.7809   0.7809   7.0941   7.0941  18.3672  18.3672  30.5839  30.5839

          k = 0.7500-0.2500 0.7500 (   584 PWs)   bands (ev):

    -1.9432   2.6847   6.7252   8.5481  19.6931  25.0930  26.5091  27.1820

          k = 0.7500 0.2500 0.7500 (   584 PWs)   bands (ev):

    -1.9432   2.6847   6.7252   8.5481  19.6931  25.0930  26.5091  27.1820

          k = 0.5000 0.0000 0.5000 (   590 PWs)   bands (ev):

    -3.5480   4.8517   5.7799  10.4578  21.5865  23.6670  26.1023  27.7959

          k = 0.5000 0.5000 0.5000 (   580 PWs)   bands (ev):

    -2.1041  -0.0861  10.6783  10.6783  22.0633  22.0633  22.9283  29.2327

          k = 0.0000-1.0000 0.0000 (   588 PWs)   bands (ev):

     0.7809   0.7809   7.0941   7.0941  18.3672  18.3672  30.5839  30.5839

          k = 0.0000-0.5000 0.0000 (   576 PWs)   bands (ev):

    -5.7910   9.1310   9.3150   9.3150  18.0630  23.9431  25.2762  25.2762

          k =-0.5000-1.0000 0.0000 (   604 PWs)   bands (ev):

     1.6621   1.6621   4.9679   4.9679  24.1460  24.1460  26.2102  26.2102

          k =-0.5000-0.5000 0.0000 (   590 PWs)   bands (ev):

    -3.5480   4.8517   5.7799  10.4578  21.5865  23.6670  26.1023  27.7959

          k = 0.2500-0.2500 0.2500 (   580 PWs)   bands (ev):

    -6.3720   6.9032  11.7496  11.7496  21.4057  21.4057  21.9968  28.5184

          k = 0.2500 0.2500 0.2500 (   580 PWs)   bands (ev):

    -6.3720   6.9032  11.7496  11.7496  21.4057  21.4057  21.9968  28.5184

          k = 0.0000-0.5000 0.0000 (   576 PWs)   bands (ev):

    -5.7910   9.1310   9.3150   9.3150  18.0630  23.9431  25.2762  25.2762

          k = 0.0000 0.0000 0.0000 (   561 PWs)   bands (ev):

    -8.1281  13.5310  13.5310  13.5310  19.1716  19.1716  19.1716  27.6020

          k = 0.5000 0.0000 0.0000 (   576 PWs)   bands (ev):

    -5.7910   9.1310   9.3150   9.3150  18.0630  23.9431  25.2762  25.2762

          k = 0.5000 0.5000 0.0000 (   590 PWs)   bands (ev):

    -3.5480   4.8517   5.7799  10.4578  21.5865  23.6670  26.1023  27.7959

          k =-0.7500 0.2500-0.7500 (   584 PWs)   bands (ev):

    -1.9432   2.6847   6.7252   8.5481  19.6931  25.0930  26.5091  27.1820

          k =-0.7500 0.7500-0.7500 (   580 PWs)   bands (ev):

    -6.3720   6.9032  11.7496  11.7496  21.4057  21.4057  21.9968  28.5184

          k =-0.2500 0.7500-0.7500 (   584 PWs)   bands (ev):

    -1.9432   2.6847   6.7252   8.5481  19.6931  25.0930  26.5091  27.1820

          k =-0.2500 1.2500-0.7500 (   584 PWs)   bands (ev):

    -1.9432   2.6847   6.7252   8.5481  19.6931  25.0930  26.5091  27.1820

          k =-0.2500-0.7500-0.7500 (   584 PWs)   bands (ev):

    -1.9432   2.6847   6.7252   8.5481  19.6931  25.0930  26.5091  27.1820

          k =-0.2500-0.2500-0.7500 (   584 PWs)   bands (ev):

    -1.9432   2.6847   6.7252   8.5481  19.6931  25.0930  26.5091  27.1820

          k = 0.0000 0.5000-0.5000 (   590 PWs)   bands (ev):

    -3.5480   4.8517   5.7799  10.4578  21.5865  23.6670  26.1023  27.7959

          k = 0.0000 1.0000-0.5000 (   604 PWs)   bands (ev):

     1.6621   1.6621   4.9679   4.9679  24.1460  24.1460  26.2102  26.2102

          k = 0.0000-0.5000-0.5000 (   590 PWs)   bands (ev):

    -3.5480   4.8517   5.7799  10.4578  21.5865  23.6670  26.1023  27.7959

          k = 0.0000 0.0000-0.5000 (   576 PWs)   bands (ev):

    -5.7910   9.1310   9.3150   9.3150  18.0630  23.9431  25.2762  25.2762

          k =-1.0000 0.0000 0.0000 (   588 PWs)   bands (ev):

     0.7809   0.7809   7.0941   7.0941  18.3672  18.3672  30.5839  30.5839

          k =-1.0000 0.5000 0.0000 (   604 PWs)   bands (ev):

     1.6621   1.6621   4.9679   4.9679  24.1460  24.1460  26.2102  26.2102

          k =-1.0000-0.5000 0.0000 (   604 PWs)   bands (ev):

     1.6621   1.6621   4.9679   4.9679  24.1460  24.1460  26.2102  26.2102

          k =-1.0000 0.0000 0.0000 (   588 PWs)   bands (ev):

     0.7809   0.7809   7.0941   7.0941  18.3672  18.3672  30.5839  30.5839

     highest occupied, lowest unoccupied level (ev):    13.5310   18.0630

     Writing output data file c.save

                                                                                

     bravais-lattice index     =            2
     lattice parameter (alat)  =       6.6750  a.u.
     unit-cell volume          =      74.3522 (a.u.)^3
     number of atoms/cell      =            2
     number of atomic types    =            1
     kinetic-energy cut-off    =      60.0000  Ry
     charge density cut-off    =     240.0000  Ry
     convergence threshold     =      1.0E-24
     beta                      =       0.7000
     number of iterations used =            4
     Exchange-correlation      = PZ ( 1  1  0  0 0 0)


     celldm(1)=    6.67500  celldm(2)=    0.00000  celldm(3)=    0.00000
     celldm(4)=    0.00000  celldm(5)=    0.00000  celldm(6)=    0.00000

     crystal axes: (cart. coord. in units of alat)
               a(1) = ( -0.5000  0.0000  0.5000 )  
               a(2) = (  0.0000  0.5000  0.5000 )  
               a(3) = ( -0.5000  0.5000  0.0000 )  

     reciprocal axes: (cart. coord. in units 2 pi/alat)
               b(1) = ( -1.0000 -1.0000  1.0000 )  
               b(2) = (  1.0000  1.0000  1.0000 )  
               b(3) = ( -1.0000  1.0000 -1.0000 )  


     Atoms inside the unit cell: 

     Cartesian axes

     site n.  atom      mass           positions (alat units)
        1     C   12.0110   tau(    1) = (    0.00000    0.00000    0.00000  )
        2     C   12.0110   tau(    2) = (   -0.25000    0.25000    0.25000  )

     Computing dynamical matrix for 
                    q = (   0.0000000   0.5000000   0.0000000 )
 
      8 Sym.Ops. (no q -> -q+G )


     G cutoff =  270.8657  (     60 G-vectors)     FFT grid: ( 24, 24, 24)
     number of k points=    36

     PseudoPot. # 1 for  C read from file:
     ../C.pz-mt.fhi.UPF
[...]
     Message from routine sym_rho_init:
     some processors have no G-vectors for symmetrization
     Message from routine sym_rho_init:
     some processors have no G-vectors for symmetrization
     Message from routine sym_rho_init:
     some processors have no G-vectors for symmetrization
     Message from routine sym_rho_init:
     some processors have no G-vectors for symmetrization
     Message from routine sym_rho_init:
     some processors have no G-vectors for symmetrization
     Message from routine sym_rho_init:
     some processors have no G-vectors for symmetrization
     Message from routine sym_rho_init:
     some processors have no G-vectors for symmetrization
     Message from routine sym_rho_init:
     some processors have no G-vectors for symmetrization
     Message from routine sym_rho_init:
     some processors have no G-vectors for symmetrization
     Message from routine sym_rho_init:
     some processors have no G-vectors for symmetrization
     Message from routine sym_rho_init:
     some processors have no G-vectors for symmetrization
     Message from routine sym_rho_init:
     some processors have no G-vectors for symmetrization
     Message from routine sym_rho_init:
     some processors have no G-vectors for symmetrization
     Message from routine sym_rho_init:
     some processors have no G-vectors for symmetrization
     Message from routine sym_rho_init:
     some processors have no G-vectors for symmetrization
     Message from routine sym_rho_init:
     some processors have no G-vectors for symmetrization
     Message from routine sym_rho_init:
     some processors have no G-vectors for symmetrization
     Message from routine sym_rho_init:
     some processors have no G-vectors for symmetrization

     The potential is recalculated from file :
     ./_ph0/c.q_8/c.save/charge-density.dat

     Starting wfc are   18 atomic wfcs

     Band Structure Calculation
     Davidson diagonalization with overlap

     ethr =  1.25E-10,  avg # of iterations =  9.2

     total cpu time spent up to now is       10.6 secs

     End of band structure calculation

          k = 0.0000 0.0000 0.0000 (   561 PWs)   bands (ev):

    -8.1281  13.5310  13.5310  13.5310  19.1716  19.1716  19.1716  27.6020

          k =-0.5000-1.0000 0.0000 (   604 PWs)   bands (ev):

     1.6621   1.6621   4.9679   4.9679  24.1460  24.1460  26.2102  26.2102

          k =-0.2500 0.2500-0.2500 (   580 PWs)   bands (ev):

    -6.3720   6.9032  11.7496  11.7496  21.4057  21.4057  21.9968  28.5184

          k =-0.7500-0.7500-0.2500 (   584 PWs)   bands (ev):

    -1.9432   2.6847   6.7252   8.5481  19.6931  25.0930  26.5091  27.1820

          k = 0.5000-0.5000 0.5000 (   580 PWs)   bands (ev):

    -2.1041  -0.0861  10.6783  10.6783  22.0633  22.0633  22.9283  29.2327

          k = 0.0000-1.5000 0.5000 (   590 PWs)   bands (ev):

    -3.5480   4.8517   5.7799  10.4578  21.5865  23.6670  26.1023  27.7959

          k = 0.0000 0.5000 0.0000 (   576 PWs)   bands (ev):

    -5.7910   9.1310   9.3150   9.3150  18.0630  23.9431  25.2762  25.2762

          k =-0.5000-0.5000 0.0000 (   590 PWs)   bands (ev):

    -3.5480   4.8517   5.7799  10.4578  21.5865  23.6670  26.1023  27.7959

          k = 0.7500-0.2500 0.7500 (   584 PWs)   bands (ev):

    -1.9432   2.6847   6.7252   8.5481  19.6931  25.0930  26.5091  27.1820

          k = 0.2500-1.2500 0.7500 (   584 PWs)   bands (ev):

    -1.9432   2.6847   6.7252   8.5481  19.6931  25.0930  26.5091  27.1820

          k = 0.5000 0.0000 0.5000 (   590 PWs)   bands (ev):

    -3.5480   4.8517   5.7799  10.4578  21.5865  23.6670  26.1023  27.7959

          k = 0.0000-1.0000 0.5000 (   604 PWs)   bands (ev):

     1.6621   1.6621   4.9679   4.9679  24.1460  24.1460  26.2102  26.2102

          k = 0.0000-1.0000 0.0000 (   588 PWs)   bands (ev):

     0.7809   0.7809   7.0941   7.0941  18.3672  18.3672  30.5839  30.5839

          k =-0.5000-2.0000 0.0000 (   576 PWs)   bands (ev):

    -5.7910   9.1310   9.3150   9.3150  18.0630  23.9431  25.2762  25.2762

          k =-0.5000-1.0000 0.0000 (   604 PWs)   bands (ev):

     1.6621   1.6621   4.9679   4.9679  24.1460  24.1460  26.2102  26.2102

          k =-1.0000-2.0000 0.0000 (   588 PWs)   bands (ev):

     0.7809   0.7809   7.0941   7.0941  18.3672  18.3672  30.5839  30.5839

          k = 0.5000 0.0000 0.0000 (   576 PWs)   bands (ev):

    -5.7910   9.1310   9.3150   9.3150  18.0630  23.9431  25.2762  25.2762

          k = 0.0000-1.0000 0.0000 (   588 PWs)   bands (ev):

     0.7809   0.7809   7.0941   7.0941  18.3672  18.3672  30.5839  30.5839

          k =-0.7500 0.2500-0.7500 (   584 PWs)   bands (ev):

    -1.9432   2.6847   6.7252   8.5481  19.6931  25.0930  26.5091  27.1820

          k =-1.2500-0.7500-0.7500 (   580 PWs)   bands (ev):

    -6.3720   6.9032  11.7496  11.7496  21.4057  21.4057  21.9968  28.5184

          k =-0.2500 0.7500 0.7500 (   584 PWs)   bands (ev):

    -1.9432   2.6847   6.7252   8.5481  19.6931  25.0930  26.5091  27.1820

          k =-0.7500-0.2500 0.7500 (   584 PWs)   bands (ev):

    -1.9432   2.6847   6.7252   8.5481  19.6931  25.0930  26.5091  27.1820

          k =-0.5000 0.0000-0.5000 (   590 PWs)   bands (ev):

    -3.5480   4.8517   5.7799  10.4578  21.5865  23.6670  26.1023  27.7959

          k =-1.0000-1.0000-0.5000 (   576 PWs)   bands (ev):

    -5.7910   9.1310   9.3150   9.3150  18.0630  23.9431  25.2762  25.2762

          k = 0.0000 0.5000 0.5000 (   590 PWs)   bands (ev):

    -3.5480   4.8517   5.7799  10.4578  21.5865  23.6670  26.1023  27.7959

          k =-0.5000-0.5000 0.5000 (   580 PWs)   bands (ev):

    -2.1041  -0.0861  10.6783  10.6783  22.0633  22.0633  22.9283  29.2327

          k =-1.0000 0.0000 0.0000 (   588 PWs)   bands (ev):

     0.7809   0.7809   7.0941   7.0941  18.3672  18.3672  30.5839  30.5839

          k =-1.5000-1.0000 0.0000 (   604 PWs)   bands (ev):

     1.6621   1.6621   4.9679   4.9679  24.1460  24.1460  26.2102  26.2102

          k = 0.0000 1.0000 0.5000 (   604 PWs)   bands (ev):

     1.6621   1.6621   4.9679   4.9679  24.1460  24.1460  26.2102  26.2102

          k =-0.5000 0.0000 0.5000 (   590 PWs)   bands (ev):

    -3.5480   4.8517   5.7799  10.4578  21.5865  23.6670  26.1023  27.7959

          k = 0.5000 1.0000 0.0000 (   604 PWs)   bands (ev):

     1.6621   1.6621   4.9679   4.9679  24.1460  24.1460  26.2102  26.2102

          k = 0.0000 0.0000 0.0000 (   561 PWs)   bands (ev):

    -8.1281  13.5310  13.5310  13.5310  19.1716  19.1716  19.1716  27.6020

     highest occupied, lowest unoccupied level (ev):    13.5310   18.0630

     Writing output data file c.save

                                                                                

     bravais-lattice index     =            2
     lattice parameter (alat)  =       6.6750  a.u.
     unit-cell volume          =      74.3522 (a.u.)^3
     number of atoms/cell      =            2
     number of atomic types    =            1
     kinetic-energy cut-off    =      60.0000  Ry
     charge density cut-off    =     240.0000  Ry
     convergence threshold     =      1.0E-24
     beta                      =       0.7000
     number of iterations used =            4
     Exchange-correlation      = PZ ( 1  1  0  0 0 0)


     celldm(1)=    6.67500  celldm(2)=    0.00000  celldm(3)=    0.00000
     celldm(4)=    0.00000  celldm(5)=    0.00000  celldm(6)=    0.00000

     crystal axes: (cart. coord. in units of alat)
               a(1) = ( -0.5000  0.0000  0.5000 )  
               a(2) = (  0.0000  0.5000  0.5000 )  
               a(3) = ( -0.5000  0.5000  0.0000 )  

     reciprocal axes: (cart. coord. in units 2 pi/alat)
               b(1) = ( -1.0000 -1.0000  1.0000 )  
               b(2) = (  1.0000  1.0000  1.0000 )  
               b(3) = ( -1.0000  1.0000 -1.0000 )  


     Atoms inside the unit cell: 

     Cartesian axes

     site n.  atom      mass           positions (alat units)
        1     C   12.0110   tau(    1) = (    0.00000    0.00000    0.00000  )
        2     C   12.0110   tau(    2) = (   -0.25000    0.25000    0.25000  )

     Computing dynamical matrix for 
                    q = (  -0.5000000  -1.0000000   0.0000000 )
 
      8 Sym.Ops. (no q -> -q+G )


     G cutoff =  270.8657  (     60 G-vectors)     FFT grid: ( 24, 24, 24)
     number of k points=    32

     PseudoPot. # 1 for  C read from file:
     ../C.pz-mt.fhi.UPF
     MD5 check sum: b7c38bc33a0cf75f44be89b84470f298
     Pseudo is Norm-conserving, Zval =  4.0
     Generated using FHI98PP, converted with fhi2upf.x v.5.0.2
     Using radial grid of  461 points,  2 beta functions with: 
                l(1) =   0
                l(2) =   1


     Atomic displacements:
     There are   3 irreducible representations

     Representation     1      2 modes -  To be done

     Representation     2      2 modes -  To be done

     Representation     3      2 modes -  To be done



     Alpha used in Ewald sum =   2.5000
     PHONON       :  2m 6.34s CPU     2m35.10s WALL



     Representation #  1 modes #   1  2

     Self-consistent Calculation

      iter #   1 total cpu time :   155.8 secs   av.it.:   6.4
      thresh= 1.000E-02 alpha_mix =  0.700 |ddv_scf|^2 =  1.860E-06

      iter #   2 total cpu time :   158.0 secs   av.it.:  10.1
      thresh= 1.364E-04 alpha_mix =  0.700 |ddv_scf|^2 =  1.030E-06

      iter #   3 total cpu time :   158.3 secs   av.it.:   9.7
      thresh= 1.015E-04 alpha_mix =  0.700 |ddv_scf|^2 =  3.876E-09

      iter #   4 total cpu time :   158.6 secs   av.it.:   9.7
      thresh= 6.226E-06 alpha_mix =  0.700 |ddv_scf|^2 =  3.932E-12

      iter #   5 total cpu time :   158.8 secs   av.it.:   9.7
      thresh= 1.983E-07 alpha_mix =  0.700 |ddv_scf|^2 =  1.596E-14

      iter #   6 total cpu time :   159.0 secs   av.it.:   9.7
      thresh= 1.263E-08 alpha_mix =  0.700 |ddv_scf|^2 =  4.118E-16

      iter #   7 total cpu time :   159.3 secs   av.it.:   9.7
      thresh= 2.029E-09 alpha_mix =  0.700 |ddv_scf|^2 =  1.125E-18

      iter #   8 total cpu time :   159.8 secs   av.it.:   9.9
      thresh= 1.061E-10 alpha_mix =  0.700 |ddv_scf|^2 =  2.066E-21

      iter #   9 total cpu time :   160.5 secs   av.it.:  10.1
      thresh= 4.546E-12 alpha_mix =  0.700 |ddv_scf|^2 =  8.697E-22

      iter #  10 total cpu time :   161.6 secs   av.it.:   9.8
      thresh= 2.949E-12 alpha_mix =  0.700 |ddv_scf|^2 =  3.499E-23

      iter #  11 total cpu time :   162.8 secs   av.it.:   9.8
      thresh= 5.915E-13 alpha_mix =  0.700 |ddv_scf|^2 =  2.409E-24

      iter #  12 total cpu time :   163.2 secs   av.it.:   9.8
      thresh= 1.552E-13 alpha_mix =  0.700 |ddv_scf|^2 =  2.139E-26

     End of self-consistent calculation

     Convergence has been achieved 


     Representation #  2 modes #   3  4

     Self-consistent Calculation

      iter #   1 total cpu time :   163.7 secs   av.it.:   6.0
      thresh= 1.000E-02 alpha_mix =  0.700 |ddv_scf|^2 =  5.248E-07

      iter #   2 total cpu time :   164.0 secs   av.it.:   9.9
      thresh= 7.245E-05 alpha_mix =  0.700 |ddv_scf|^2 =  5.395E-08

      iter #   3 total cpu time :   164.3 secs   av.it.:   9.6
      thresh= 2.323E-05 alpha_mix =  0.700 |ddv_scf|^2 =  2.222E-11

      iter #   4 total cpu time :   164.7 secs   av.it.:  10.0
      thresh= 4.714E-07 alpha_mix =  0.700 |ddv_scf|^2 =  5.926E-13

      iter #   5 total cpu time :   165.1 secs   av.it.:   9.6
      thresh= 7.698E-08 alpha_mix =  0.700 |ddv_scf|^2 =  4.449E-15

      iter #   6 total cpu time :   165.4 secs   av.it.:   9.8
      thresh= 6.670E-09 alpha_mix =  0.700 |ddv_scf|^2 =  6.226E-18

      iter #   7 total cpu time :   165.7 secs   av.it.:  10.0
      thresh= 2.495E-10 alpha_mix =  0.700 |ddv_scf|^2 =  1.347E-19

      iter #   8 total cpu time :   166.1 secs   av.it.:  10.2
      thresh= 3.671E-11 alpha_mix =  0.700 |ddv_scf|^2 =  4.400E-21

      iter #   9 total cpu time :   166.4 secs   av.it.:  10.0
      thresh= 6.633E-12 alpha_mix =  0.700 |ddv_scf|^2 =  8.231E-23

      iter #  10 total cpu time :   166.7 secs   av.it.:   9.8
      thresh= 9.072E-13 alpha_mix =  0.700 |ddv_scf|^2 =  5.430E-24

      iter #  11 total cpu time :   167.3 secs   av.it.:  10.0
      thresh= 2.330E-13 alpha_mix =  0.700 |ddv_scf|^2 =  3.842E-25

     End of self-consistent calculation

     Convergence has been achieved 


     Representation #  3 modes #   5  6

     Self-consistent Calculation

      iter #   1 total cpu time :   167.7 secs   av.it.:   6.4
      thresh= 1.000E-02 alpha_mix =  0.700 |ddv_scf|^2 =  1.184E-06

      iter #   2 total cpu time :   168.1 secs   av.it.:   9.9
      thresh= 1.088E-04 alpha_mix =  0.700 |ddv_scf|^2 =  1.288E-07

      iter #   3 total cpu time :   168.4 secs   av.it.:   9.6
      thresh= 3.589E-05 alpha_mix =  0.700 |ddv_scf|^2 =  3.672E-11

      iter #   4 total cpu time :   168.6 secs   av.it.:   9.9
      thresh= 6.060E-07 alpha_mix =  0.700 |ddv_scf|^2 =  8.190E-13

      iter #   5 total cpu time :   168.9 secs   av.it.:   9.4
      thresh= 9.050E-08 alpha_mix =  0.700 |ddv_scf|^2 =  2.543E-15

      iter #   6 total cpu time :   169.1 secs   av.it.:   9.8
      thresh= 5.043E-09 alpha_mix =  0.700 |ddv_scf|^2 =  1.734E-17

      iter #   7 total cpu time :   169.3 secs   av.it.:  10.3
      thresh= 4.165E-10 alpha_mix =  0.700 |ddv_scf|^2 =  2.474E-19

      iter #   8 total cpu time :   169.6 secs   av.it.:  10.0
      thresh= 4.974E-11 alpha_mix =  0.700 |ddv_scf|^2 =  8.208E-21

      iter #   9 total cpu time :   170.0 secs   av.it.:   9.8
      thresh= 9.060E-12 alpha_mix =  0.700 |ddv_scf|^2 =  2.511E-23

      iter #  10 total cpu time :   170.2 secs   av.it.:  10.0
      thresh= 5.011E-13 alpha_mix =  0.700 |ddv_scf|^2 =  1.805E-24

      iter #  11 total cpu time :   170.7 secs   av.it.:   9.9
      thresh= 1.343E-13 alpha_mix =  0.700 |ddv_scf|^2 =  1.249E-25

     End of self-consistent calculation

     Convergence has been achieved 
 
     Number of q in the star =    6
     List of q in the star:
          1  -0.500000000  -1.000000000   0.000000000
          2   0.000000000   1.000000000   0.500000000
          3   0.000000000  -1.000000000  -0.500000000
          4   0.500000000   1.000000000   0.000000000
          5  -1.000000000  -0.500000000   0.000000000
          6   0.000000000  -0.500000000  -1.000000000

     Diagonalizing the dynamical matrix

     q = (   -0.500000000  -1.000000000   0.000000000 ) 

 **************************************************************************
     freq (    1) =      27.521017 [THz] =     918.002312 [cm-1]
     freq (    2) =      27.521017 [THz] =     918.002312 [cm-1]
     freq (    3) =      29.898770 [THz] =     997.315611 [cm-1]
     freq (    4) =      29.898770 [THz] =     997.315611 [cm-1]
     freq (    5) =      34.843178 [THz] =    1162.243325 [cm-1]
     freq (    6) =      34.843178 [THz] =    1162.243325 [cm-1]
 **************************************************************************
 
     init_run     :      0.20s CPU      0.26s WALL (       7 calls)
     electrons    :      6.38s CPU      6.67s WALL (       7 calls)

     Called by init_run:
     wfcinit      :      0.00s CPU      0.01s WALL (       7 calls)
     potinit      :      0.03s CPU      0.03s WALL (       7 calls)

     Called by electrons:
     c_bands      :      6.37s CPU      6.64s WALL (       7 calls)
     v_of_rho     :      0.00s CPU      0.01s WALL (       8 calls)

     Called by c_bands:
     init_us_2    :      0.07s CPU      0.08s WALL (   10159 calls)
     cegterg      :      2.93s CPU      3.04s WALL (     292 calls)

     Called by sum_band:

     Called by *egterg:
     h_psi        :     49.85s CPU     52.28s WALL (  118835 calls)
     g_psi        :      0.00s CPU      0.00s WALL (    2730 calls)
     cdiaghg      :      0.62s CPU      0.64s WALL (    3022 calls)

     Called by h_psi:
     h_psi:pot    :     49.63s CPU     52.05s WALL (  118835 calls)
     h_psi:calbec :      4.37s CPU      4.61s WALL (  118835 calls)
     vloc_psi     :     44.36s CPU     46.49s WALL (  118835 calls)
     add_vuspsi   :      0.47s CPU      0.49s WALL (  118835 calls)

     General routines
     calbec       :      8.76s CPU      9.20s WALL (  239616 calls)
     fft          :      0.14s CPU      0.15s WALL (    1694 calls)
     ffts         :      0.06s CPU      0.07s WALL (    1164 calls)
     fftw         :     69.05s CPU     71.80s WALL ( 1082948 calls)
     davcio       :      0.69s CPU      2.37s WALL (   55517 calls)
 
     Parallel routines
     fft_scatter  :     63.09s CPU     65.60s WALL ( 1085806 calls)
 
     PHONON       :  2m20.09s CPU     2m51.48s WALL

     INITIALIZATION: 
     phq_setup    :      0.04s CPU      0.06s WALL (       8 calls)
     phq_init     :      1.41s CPU      1.45s WALL (       8 calls)
 
     phq_init     :      1.41s CPU      1.45s WALL (       8 calls)
     init_vloc    :      0.00s CPU      0.00s WALL (       8 calls)
     init_us_1    :      0.11s CPU      0.12s WALL (       8 calls)
 
     DYNAMICAL MATRIX:
     dynmat0      :      0.23s CPU      0.26s WALL (       8 calls)
     phqscf       :    121.45s CPU    139.18s WALL (       8 calls)
     dynmatrix    :      0.01s CPU      0.04s WALL (       8 calls)
 
     phqscf       :    121.45s CPU    139.18s WALL (       8 calls)
     solve_linter :    121.16s CPU    138.81s WALL (      32 calls)
     drhodv       :      0.25s CPU      0.27s WALL (      32 calls)
 
     dynmat0      :      0.23s CPU      0.26s WALL (       8 calls)
     dynmat_us    :      0.23s CPU      0.24s WALL (       8 calls)
     d2ionq       :      0.00s CPU      0.00s WALL (       8 calls)
 
     dynmat_us    :      0.23s CPU      0.24s WALL (       8 calls)
 
     phqscf       :    121.45s CPU    139.18s WALL (       8 calls)
     solve_linter :    121.16s CPU    138.81s WALL (      32 calls)
 
     solve_linter :    121.16s CPU    138.81s WALL (      32 calls)
     dvqpsi_us    :      0.68s CPU      0.74s WALL (     972 calls)
     ortho        :      2.93s CPU      2.98s WALL (   11131 calls)
     cgsolve      :     60.88s CPU     64.02s WALL (   11131 calls)
     incdrhoscf   :     12.74s CPU     13.07s WALL (   11107 calls)
     vpsifft      :     12.09s CPU     12.46s WALL (    9991 calls)
     dv_of_drho   :      0.13s CPU      0.14s WALL (     554 calls)
     mix_pot      :     17.42s CPU     27.69s WALL (     385 calls)
     psymdvscf    :      2.70s CPU      2.73s WALL (     377 calls)
 
     dvqpsi_us    :      0.68s CPU      0.74s WALL (     972 calls)
     dvqpsi_us_on :      0.02s CPU      0.02s WALL (     972 calls)
 
     cgsolve      :     60.88s CPU     64.02s WALL (   11131 calls)
     ch_psi       :     53.57s CPU     56.32s WALL (  115521 calls)
 
     ch_psi       :     53.57s CPU     56.32s WALL (  115521 calls)
     h_psi        :     49.85s CPU     52.28s WALL (  118835 calls)
     last         :      6.69s CPU      7.07s WALL (  115521 calls)
 
     h_psi        :     49.85s CPU     52.28s WALL (  118835 calls)
     add_vuspsi   :      0.47s CPU      0.49s WALL (  118835 calls)
 
     incdrhoscf   :     12.74s CPU     13.07s WALL (   11107 calls)
 
 
      General routines
     calbec       :      8.76s CPU      9.20s WALL (  239616 calls)
     fft          :      0.14s CPU      0.15s WALL (    1694 calls)
     ffts         :      0.06s CPU      0.07s WALL (    1164 calls)
     fftw         :     69.05s CPU     71.80s WALL ( 1082948 calls)
     davcio       :      0.69s CPU      2.37s WALL (   55517 calls)
     write_rec    :      0.89s CPU      3.77s WALL (     417 calls)
 
 
     PHONON       :  2m20.09s CPU     2m51.48s WALL

 
   This run was terminated on:  16:47:27   4Jan2021            

=------------------------------------------------------------------------------=
   JOB DONE.
=------------------------------------------------------------------------------=
