ANIMSTEPS   6
CRYSTAL
PRIMVEC
   -1.773649997    0.000000000    1.773649997
    0.000000000    1.773649997    1.773649997
   -1.773649997    1.773649997    0.000000000
PRIMCOORD  1
      2   1
   C      0.00000   0.00000   0.00000   0.00000  -0.07071   0.00000
   C     -0.87974   0.87974   0.87974   0.00000  -0.07071   0.00000
PRIMCOORD  2
      2   1
   C      0.00000   0.00000   0.00000  -0.07071   0.00000   0.00000
   C     -0.87974   0.87974   0.87974  -0.07071   0.00000   0.00000
PRIMCOORD  3
      2   1
   C      0.00000   0.00000   0.00000   0.00000   0.00000  -0.07071
   C     -0.87974   0.87974   0.87974   0.00000   0.00000  -0.07071
PRIMCOORD  4
      2   1
   C      0.00000   0.00000   0.00000   0.00000   0.07071   0.00000
   C     -0.87974   0.87974   0.87974   0.00000  -0.07071   0.00000
PRIMCOORD  5
      2   1
   C      0.00000   0.00000   0.00000   0.00000   0.00000  -0.07071
   C     -0.87974   0.87974   0.87974   0.00000   0.00000   0.07071
PRIMCOORD  6
      2   1
   C      0.00000   0.00000   0.00000  -0.07071   0.00000   0.00000
   C     -0.87974   0.87974   0.87974   0.07071   0.00000   0.00000
