
     Program PHONON v.6.1 (svn rev. 13369) starts on  8Dec2020 at  9:22:55 

     This program is part of the open-source Quantum ESPRESSO suite
     for quantum simulation of materials; please cite
         "P. Giannozzi et al., J. Phys.:Condens. Matter 21 395502 (2009);
          URL http://www.quantum-espresso.org", 
     in publications or presentations arising from this work. More details at
     http://www.quantum-espresso.org/quote

     Parallel version (MPI & OpenMP), running on      80 processor cores
     Number of MPI processes:                80
     Threads/MPI process:                     1
     R & G space division:  proc/nbgrp/npool/nimage =      80

     Reading data from directory:
     ./c.save

   Info: using nr1, nr2, nr3 values from input

   Info: using nr1, nr2, nr3 values from input

     IMPORTANT: XC functional enforced from input :
     Exchange-correlation      = PZ ( 1  1  0  0 0 0)
     Any further DFT definition will be discarded
     Please, verify this is what you really want

               file C.pz-mt.fhi.UPF: wavefunction(s)  3d renormalized
 
     Parallelization info
     --------------------
     sticks:   dense  smooth     PW     G-vecs:    dense   smooth      PW
     Min           6       6      1                   88       88      12
     Max           8       8      2                   91       91      18
     Sum         499     499    151                 7119     7119    1243
 


     Dynamical matrices for ( 2, 2, 2)  uniform grid of q-points
     (   3q-points):
       N         xq(1)         xq(2)         xq(3) 
       1   0.000000000   0.000000000   0.000000000
       2   0.504024128  -0.504024128   0.504024128
       3   0.000000000  -1.008048256   0.000000000

     Calculation of q =    0.0000000   0.0000000   0.0000000

                                                                                

     bravais-lattice index     =            2
     lattice parameter (alat)  =       6.7034  a.u.
     unit-cell volume          =      73.5168 (a.u.)^3
     number of atoms/cell      =            2
     number of atomic types    =            1
     kinetic-energy cut-off    =      80.0000  Ry
     charge density cut-off    =     320.0000  Ry
     convergence threshold     =      1.0E-24
     beta                      =       0.7000
     number of iterations used =            4
     Exchange-correlation      = PZ ( 1  1  0  0 0 0)


     celldm(1)=    6.70343  celldm(2)=    0.00000  celldm(3)=    0.00000
     celldm(4)=    0.00000  celldm(5)=    0.00000  celldm(6)=    0.00000

     crystal axes: (cart. coord. in units of alat)
               a(1) = ( -0.4960 -0.0000  0.4960 )  
               a(2) = ( -0.0000  0.4960  0.4960 )  
               a(3) = ( -0.4960  0.4960  0.0000 )  

     reciprocal axes: (cart. coord. in units 2 pi/alat)
               b(1) = ( -1.0080 -1.0080  1.0080 )  
               b(2) = (  1.0080  1.0080  1.0080 )  
               b(3) = ( -1.0080  1.0080 -1.0080 )  


     Atoms inside the unit cell: 

     Cartesian axes

     site n.  atom      mass           positions (alat units)
        1     C   12.0110   tau(    1) = (   -0.00000   -0.00000    0.00000  )
        2     C   12.0110   tau(    2) = (   -0.24800    0.24800    0.24800  )

     Computing dynamical matrix for 
                    q = (   0.0000000   0.0000000   0.0000000 )
 
     25 Sym.Ops. (with q -> -q+G )


     G cutoff =  364.2368  (     91 G-vectors)     FFT grid: ( 27, 27, 27)
     number of k points=     3

     PseudoPot. # 1 for  C read from file:
     ../C.pz-mt.fhi.UPF
     MD5 check sum: b7c38bc33a0cf75f44be89b84470f298
     Pseudo is Norm-conserving, Zval =  4.0
     Generated using FHI98PP, converted with fhi2upf.x v.5.0.2
     Using radial grid of  461 points,  2 beta functions with: 
                l(1) =   0
                l(2) =   1

     Mode symmetry, T_d (-43m)  point group:


     Electric field:
     Dielectric constant
     Born effective charges in two ways 


     Atomic displacements:
     There are   2 irreducible representations

     Representation     1      3 modes -T_2  G_15 P_4  To be done

     Representation     2      3 modes -T_2  G_15 P_4  To be done



     Alpha used in Ewald sum =   2.8000
     PHONON       :     0.41s CPU         1.86s WALL


     Electric Fields Calculation

      iter #   1 total cpu time :     2.5 secs   av.it.:   5.2
      thresh= 1.000E-02 alpha_mix =  0.700 |ddv_scf|^2 =  1.202E-08

      iter #   2 total cpu time :     3.2 secs   av.it.:   9.6
      thresh= 1.097E-05 alpha_mix =  0.700 |ddv_scf|^2 =  9.411E-11

      iter #   3 total cpu time :     3.6 secs   av.it.:   9.6
      thresh= 9.701E-07 alpha_mix =  0.700 |ddv_scf|^2 =  6.729E-12

      iter #   4 total cpu time :     3.9 secs   av.it.:   9.6
      thresh= 2.594E-07 alpha_mix =  0.700 |ddv_scf|^2 =  7.608E-15

      iter #   5 total cpu time :     4.3 secs   av.it.:   9.4
      thresh= 8.722E-09 alpha_mix =  0.700 |ddv_scf|^2 =  3.383E-18

      iter #   6 total cpu time :     4.8 secs   av.it.:   9.6
      thresh= 1.839E-10 alpha_mix =  0.700 |ddv_scf|^2 =  1.758E-20

      iter #   7 total cpu time :     5.2 secs   av.it.:   9.2
      thresh= 1.326E-11 alpha_mix =  0.700 |ddv_scf|^2 =  1.505E-24

      iter #   8 total cpu time :     5.6 secs   av.it.:   9.7
      thresh= 1.227E-13 alpha_mix =  0.700 |ddv_scf|^2 =  9.714E-26

     End of electric fields calculation

          Dielectric constant in cartesian axis 

          (      15.626699400       0.000000000       0.000000000 )
          (      -0.000000000      15.626699400       0.000000000 )
          (       0.000000000       0.000000000      15.626699400 )

          Effective charges (d Force / dE) in cartesian axis

           atom      1   C  
      Ex  (       -2.41624       -0.00000       -0.00000 )
      Ey  (        0.00000       -2.41624        0.00000 )
      Ez  (        0.00000        0.00000       -2.41624 )
           atom      2   C  
      Ex  (       -2.41624       -0.00000        0.00000 )
      Ey  (       -0.00000       -2.41624        0.00000 )
      Ez  (        0.00000       -0.00000       -2.41624 )


     Representation #  1 modes #   1  2  3

     Self-consistent Calculation

      iter #   1 total cpu time :     6.5 secs   av.it.:   6.0
      thresh= 1.000E-02 alpha_mix =  0.700 |ddv_scf|^2 =  4.041E-08

      iter #   2 total cpu time :     6.9 secs   av.it.:  10.1
      thresh= 2.010E-05 alpha_mix =  0.700 |ddv_scf|^2 =  1.475E-10

      iter #   3 total cpu time :     7.2 secs   av.it.:   9.9
      thresh= 1.215E-06 alpha_mix =  0.700 |ddv_scf|^2 =  3.267E-12

      iter #   4 total cpu time :     7.5 secs   av.it.:   9.6
      thresh= 1.807E-07 alpha_mix =  0.700 |ddv_scf|^2 =  1.841E-13

      iter #   5 total cpu time :     7.8 secs   av.it.:   9.6
      thresh= 4.291E-08 alpha_mix =  0.700 |ddv_scf|^2 =  1.519E-16

      iter #   6 total cpu time :     8.0 secs   av.it.:  10.3
      thresh= 1.233E-09 alpha_mix =  0.700 |ddv_scf|^2 =  1.723E-19

      iter #   7 total cpu time :     8.3 secs   av.it.:   9.9
      thresh= 4.151E-11 alpha_mix =  0.700 |ddv_scf|^2 =  8.225E-21

      iter #   8 total cpu time :     8.7 secs   av.it.:   9.9
      thresh= 9.069E-12 alpha_mix =  0.700 |ddv_scf|^2 =  5.488E-23

      iter #   9 total cpu time :     9.1 secs   av.it.:   9.7
      thresh= 7.408E-13 alpha_mix =  0.700 |ddv_scf|^2 =  1.434E-24

      iter #  10 total cpu time :     9.9 secs   av.it.:  10.3
      thresh= 1.197E-13 alpha_mix =  0.700 |ddv_scf|^2 =  2.165E-27

     End of self-consistent calculation

     Convergence has been achieved 


     Representation #  2 modes #   4  5  6

     Self-consistent Calculation

      iter #   1 total cpu time :    10.4 secs   av.it.:   6.3
      thresh= 1.000E-02 alpha_mix =  0.700 |ddv_scf|^2 =  4.042E-08

      iter #   2 total cpu time :    11.1 secs   av.it.:  10.3
      thresh= 2.010E-05 alpha_mix =  0.700 |ddv_scf|^2 =  1.475E-10

      iter #   3 total cpu time :    11.4 secs   av.it.:  10.3
      thresh= 1.214E-06 alpha_mix =  0.700 |ddv_scf|^2 =  3.262E-12

      iter #   4 total cpu time :    11.7 secs   av.it.:  10.0
      thresh= 1.806E-07 alpha_mix =  0.700 |ddv_scf|^2 =  1.841E-13

      iter #   5 total cpu time :    12.0 secs   av.it.:  10.0
      thresh= 4.291E-08 alpha_mix =  0.700 |ddv_scf|^2 =  1.503E-16

      iter #   6 total cpu time :    12.3 secs   av.it.:  10.7
      thresh= 1.226E-09 alpha_mix =  0.700 |ddv_scf|^2 =  1.685E-19

      iter #   7 total cpu time :    12.6 secs   av.it.:  10.2
      thresh= 4.104E-11 alpha_mix =  0.700 |ddv_scf|^2 =  8.187E-21

      iter #   8 total cpu time :    12.8 secs   av.it.:  10.6
      thresh= 9.048E-12 alpha_mix =  0.700 |ddv_scf|^2 =  5.377E-23

      iter #   9 total cpu time :    13.1 secs   av.it.:  10.0
      thresh= 7.333E-13 alpha_mix =  0.700 |ddv_scf|^2 =  1.401E-24

      iter #  10 total cpu time :    13.5 secs   av.it.:  10.6
      thresh= 1.184E-13 alpha_mix =  0.700 |ddv_scf|^2 =  2.280E-27

     End of self-consistent calculation

     Convergence has been achieved 
 
     Number of q in the star =    1
     List of q in the star:
          1   0.000000000   0.000000000   0.000000000

          Dielectric constant in cartesian axis 

          (      15.626699400       0.000000000       0.000000000 )
          (      -0.000000000      15.626699400       0.000000000 )
          (       0.000000000       0.000000000      15.626699400 )

          Effective charges (d Force / dE) in cartesian axis

           atom      1   C  
      Ex  (       -2.41624       -0.00000       -0.00000 )
      Ey  (        0.00000       -2.41624        0.00000 )
      Ez  (        0.00000        0.00000       -2.41624 )
           atom      2   C  
      Ex  (       -2.41624       -0.00000        0.00000 )
      Ey  (       -0.00000       -2.41624        0.00000 )
      Ez  (        0.00000       -0.00000       -2.41624 )

          Effective charges (d P / du) in cartesian axis 

           atom      1   C  
      Px  (       -2.41624       -0.00000        0.00000 )
      Py  (       -0.00000       -2.41624        0.00000 )
      Pz  (       -0.00000       -0.00000       -2.41624 )
           atom      2   C  
      Px  (       -2.41624       -0.00000        0.00000 )
      Py  (        0.00000       -2.41624       -0.00000 )
      Pz  (        0.00000        0.00000       -2.41624 )

     Diagonalizing the dynamical matrix

     q = (    0.000000000   0.000000000   0.000000000 ) 

 **************************************************************************
     freq (    1) =     -18.560503 [THz] =    -619.111740 [cm-1]
     freq (    2) =     -18.560503 [THz] =    -619.111740 [cm-1]
     freq (    3) =     -18.560503 [THz] =    -619.111740 [cm-1]
     freq (    4) =      45.342732 [THz] =    1512.470731 [cm-1]
     freq (    5) =      45.342732 [THz] =    1512.470731 [cm-1]
     freq (    6) =      45.342732 [THz] =    1512.470731 [cm-1]
 **************************************************************************

     Mode symmetry, T_d (-43m)  point group:

     freq (  1 -  3) =       -619.1  [cm-1]   --> T_2  G_15 P_4   I+R
     freq (  4 -  6) =       1512.5  [cm-1]   --> T_2  G_15 P_4   I+R

     Calculation of q =    0.5040241  -0.5040241   0.5040241

   Info: using nr1, nr2, nr3 values from input

   Info: using nr1, nr2, nr3 values from input
 
     Parallelization info
     --------------------
     sticks:   dense  smooth     PW     G-vecs:    dense   smooth      PW
     Min           6       6      2                   88       88      17
     Max           8       8      3                   91       91      21
     Sum         499     499    163                 7119     7119    1459
 


     bravais-lattice index     =            2
     lattice parameter (alat)  =       6.7034  a.u.
     unit-cell volume          =      73.5168 (a.u.)^3
     number of atoms/cell      =            2
     number of atomic types    =            1
     number of electrons       =         8.00
     number of Kohn-Sham states=            8
     kinetic-energy cutoff     =      80.0000  Ry
     charge density cutoff     =     320.0000  Ry
     Exchange-correlation      = PZ ( 1  1  0  0 0 0)

     celldm(1)=   6.703426  celldm(2)=   0.000000  celldm(3)=   0.000000
     celldm(4)=   0.000000  celldm(5)=   0.000000  celldm(6)=   0.000000

     crystal axes: (cart. coord. in units of alat)
               a(1) = (  -0.496008  -0.000000   0.496008 )  
               a(2) = (  -0.000000   0.496008   0.496008 )  
               a(3) = (  -0.496008   0.496008   0.000000 )  

     reciprocal axes: (cart. coord. in units 2 pi/alat)
               b(1) = ( -1.008048 -1.008048  1.008048 )  
               b(2) = (  1.008048  1.008048  1.008048 )  
               b(3) = ( -1.008048  1.008048 -1.008048 )  


     PseudoPot. # 1 for  C read from file:
     ../C.pz-mt.fhi.UPF
     MD5 check sum: b7c38bc33a0cf75f44be89b84470f298
     Pseudo is Norm-conserving, Zval =  4.0
     Generated using FHI98PP, converted with fhi2upf.x v.5.0.2
     Using radial grid of  461 points,  2 beta functions with: 
                l(1) =   0
                l(2) =   1

     atomic species   valence    mass     pseudopotential
        C              4.00    12.01100      C( 1.00)

     24 Sym. Ops. (no inversion) found



   Cartesian axes

     site n.     atom                  positions (alat units)
         1           C   tau(   1) = (  -0.0000000  -0.0000000   0.0000000  )
         2           C   tau(   2) = (  -0.2480040   0.2480040   0.2480040  )

     number of k points=     8
                       cart. coord. in units 2pi/alat
        k(    1) = (   0.0000000   0.0000000   0.0000000), wk =   0.2500000
        k(    2) = (   0.5040241  -0.5040241   0.5040241), wk =   0.0000000
        k(    3) = (   0.5040241  -0.5040241   0.5040241), wk =   0.2500000
        k(    4) = (   1.0080483  -1.0080483   1.0080483), wk =   0.0000000
        k(    5) = (   0.0000000  -1.0080483   0.0000000), wk =   0.7500000
        k(    6) = (   0.5040241  -1.5120724   0.5040241), wk =   0.0000000
        k(    7) = (  -0.5040241   0.5040241   0.5040241), wk =   0.7500000
        k(    8) = (   0.0000000   0.0000000   1.0080483), wk =   0.0000000

     Dense  grid:     7119 G-vectors     FFT dimensions: (  27,  27,  27)

     Estimated max dynamical RAM per process >       0.24MB

     Estimated total allocated dynamical RAM >      19.55MB
     Message from routine sym_rho_init:
     some processors have no G-vectors for symmetrization
     Message from routine sym_rho_init:
     some processors have no G-vectors for symmetrization
     Message from routine sym_rho_init:
     some processors have no G-vectors for symmetrization
     Message from routine sym_rho_init:
     some processors have no G-vectors for symmetrization
     Message from routine sym_rho_init:
     some processors have no G-vectors for symmetrization
     Message from routine sym_rho_init:
     some processors have no G-vectors for symmetrization
     Message from routine sym_rho_init:
     some processors have no G-vectors for symmetrization
     Message from routine sym_rho_init:
     some processors have no G-vectors for symmetrization
     Message from routine sym_rho_init:
     some processors have no G-vectors for symmetrization
     Message from routine sym_rho_init:
     some processors have no G-vectors for symmetrization
     Message from routine sym_rho_init:
     some processors have no G-vectors for symmetrization
     Message from routine sym_rho_init:
     some processors have no G-vectors for symmetrization
     Message from routine sym_rho_init:
     some processors have no G-vectors for symmetrization
     Message from routine sym_rho_init:
     some processors have no G-vectors for symmetrization
     Message from routine sym_rho_init:
     some processors have no G-vectors for symmetrization
     Message from routine sym_rho_init:
     some processors have no G-vectors for symmetrization
     Message from routine sym_rho_init:
     some processors have no G-vectors for symmetrization
     Message from routine sym_rho_init:
     some processors have no G-vectors for symmetrization
     Message from routine sym_rho_init:
     some processors have no G-vectors for symmetrization
     Message from routine sym_rho_init:
     some processors have no G-vectors for symmetrization
     Message from routine sym_rho_init:
     some processors have no G-vectors for symmetrization
     Message from routine sym_rho_init:
     some processors have no G-vectors for symmetrization
     Message from routine sym_rho_init:
     some processors have no G-vectors for symmetrization
     Message from routine sym_rho_init:
     some processors have no G-vectors for symmetrization
     Message from routine sym_rho_init:
     some processors have no G-vectors for symmetrization
     Message from routine sym_rho_init:
     some processors have no G-vectors for symmetrization
     Message from routine sym_rho_init:
     some processors have no G-vectors for symmetrization
     Message from routine sym_rho_init:
     some processors have no G-vectors for symmetrization
     Message from routine sym_rho_init:
     some processors have no G-vectors for symmetrization
     Message from routine sym_rho_init:
     some processors have no G-vectors for symmetrization
     Message from routine sym_rho_init:
     some processors have no G-vectors for symmetrization
     Message from routine sym_rho_init:
     some processors have no G-vectors for symmetrization
     Message from routine sym_rho_init:
     some processors have no G-vectors for symmetrization
     Message from routine sym_rho_init:
     some processors have no G-vectors for symmetrization
     Message from routine sym_rho_init:
     some processors have no G-vectors for symmetrization
     Message from routine sym_rho_init:
     some processors have no G-vectors for symmetrization
     Message from routine sym_rho_init:
     some processors have no G-vectors for symmetrization
     Message from routine sym_rho_init:
     some processors have no G-vectors for symmetrization
     Message from routine sym_rho_init:
     some processors have no G-vectors for symmetrization
     Message from routine sym_rho_init:
     some processors have no G-vectors for symmetrization

     The potential is recalculated from file :
     ./_ph0/c.q_2/c.save/charge-density.dat

     Starting wfc are   18 atomic wfcs

     Band Structure Calculation
     Davidson diagonalization with overlap

     ethr =  1.25E-10,  avg # of iterations =  8.0

     total cpu time spent up to now is        0.5 secs

     End of band structure calculation

          k = 0.0000 0.0000 0.0000 (   893 PWs)   bands (ev):

    -8.0779  13.7330  13.7330  13.7330  19.4076  19.4076  19.4076  28.0546

          k = 0.5040-0.5040 0.5040 (   886 PWs)   bands (ev):

    -1.9881  -0.0092  10.8518  10.8518  22.3162  22.3162  23.2865  29.5406

          k = 0.5040-0.5040 0.5040 (   886 PWs)   bands (ev):

    -1.9881  -0.0092  10.8518  10.8518  22.3162  22.3162  23.2865  29.5406

          k = 1.0080-1.0080 1.0080 (   893 PWs)   bands (ev):

    -8.0779  13.7330  13.7330  13.7330  19.4076  19.4076  19.4076  28.0546

          k = 0.0000-1.0080 0.0000 (   894 PWs)   bands (ev):

     0.9027   0.9027   7.2285   7.2285  18.5988  18.5988  30.9603  30.9603

          k = 0.5040-1.5121 0.5040 (   886 PWs)   bands (ev):

    -1.9881  -0.0092  10.8518  10.8518  22.3162  22.3162  23.2865  29.5406

          k =-0.5040 0.5040 0.5040 (   886 PWs)   bands (ev):

    -1.9881  -0.0092  10.8518  10.8518  22.3162  22.3162  23.2865  29.5406

          k = 0.0000 0.0000 1.0080 (   894 PWs)   bands (ev):

     0.9027   0.9027   7.2285   7.2285  18.5988  18.5988  30.9603  30.9603

     highest occupied, lowest unoccupied level (ev):    13.7330   18.5988

     Writing output data file c.save

                                                                                

     bravais-lattice index     =            2
     lattice parameter (alat)  =       6.7034  a.u.
     unit-cell volume          =      73.5168 (a.u.)^3
     number of atoms/cell      =            2
     number of atomic types    =            1
     kinetic-energy cut-off    =      80.0000  Ry
     charge density cut-off    =     320.0000  Ry
     convergence threshold     =      1.0E-24
     beta                      =       0.7000
     number of iterations used =            4
     Exchange-correlation      = PZ ( 1  1  0  0 0 0)


     celldm(1)=    6.70343  celldm(2)=    0.00000  celldm(3)=    0.00000
     celldm(4)=    0.00000  celldm(5)=    0.00000  celldm(6)=    0.00000

     crystal axes: (cart. coord. in units of alat)
               a(1) = ( -0.4960 -0.0000  0.4960 )  
               a(2) = ( -0.0000  0.4960  0.4960 )  
               a(3) = ( -0.4960  0.4960  0.0000 )  

     reciprocal axes: (cart. coord. in units 2 pi/alat)
               b(1) = ( -1.0080 -1.0080  1.0080 )  
               b(2) = (  1.0080  1.0080  1.0080 )  
               b(3) = ( -1.0080  1.0080 -1.0080 )  


     Atoms inside the unit cell: 

     Cartesian axes

     site n.  atom      mass           positions (alat units)
        1     C   12.0110   tau(    1) = (   -0.00000   -0.00000    0.00000  )
        2     C   12.0110   tau(    2) = (   -0.24800    0.24800    0.24800  )

     Computing dynamical matrix for 
                    q = (   0.5040241  -0.5040241   0.5040241 )
 
      7 Sym.Ops. (with q -> -q+G )


     G cutoff =  364.2368  (     91 G-vectors)     FFT grid: ( 27, 27, 27)
     number of k points=     8

     PseudoPot. # 1 for  C read from file:
     ../C.pz-mt.fhi.UPF
     MD5 check sum: b7c38bc33a0cf75f44be89b84470f298
     Pseudo is Norm-conserving, Zval =  4.0
     Generated using FHI98PP, converted with fhi2upf.x v.5.0.2
     Using radial grid of  461 points,  2 beta functions with: 
                l(1) =   0
                l(2) =   1

     Mode symmetry, C_3v (3m)   point group:


     Atomic displacements:
     There are   4 irreducible representations

     Representation     1      1 modes -A_1  L_1  To be done

     Representation     2      1 modes -A_1  L_1  To be done

     Representation     3      2 modes -E    L_3  To be done

     Representation     4      2 modes -E    L_3  To be done



     Alpha used in Ewald sum =   2.8000
     PHONON       :     4.53s CPU        15.88s WALL



     Representation #  1 mode #   1

     Self-consistent Calculation

      iter #   1 total cpu time :    16.2 secs   av.it.:   6.8
      thresh= 1.000E-02 alpha_mix =  0.700 |ddv_scf|^2 =  3.287E-05

      iter #   2 total cpu time :    16.7 secs   av.it.:   9.2
      thresh= 5.733E-04 alpha_mix =  0.700 |ddv_scf|^2 =  4.378E-05

      iter #   3 total cpu time :    16.9 secs   av.it.:   8.5
      thresh= 6.616E-04 alpha_mix =  0.700 |ddv_scf|^2 =  1.662E-07

      iter #   4 total cpu time :    17.0 secs   av.it.:   9.0
      thresh= 4.077E-05 alpha_mix =  0.700 |ddv_scf|^2 =  1.301E-09

      iter #   5 total cpu time :    17.1 secs   av.it.:   8.8
      thresh= 3.607E-06 alpha_mix =  0.700 |ddv_scf|^2 =  1.116E-10

      iter #   6 total cpu time :    17.2 secs   av.it.:   9.2
      thresh= 1.056E-06 alpha_mix =  0.700 |ddv_scf|^2 =  1.421E-12

      iter #   7 total cpu time :    17.3 secs   av.it.:   9.0
      thresh= 1.192E-07 alpha_mix =  0.700 |ddv_scf|^2 =  5.141E-14

      iter #   8 total cpu time :    17.4 secs   av.it.:   9.0
      thresh= 2.267E-08 alpha_mix =  0.700 |ddv_scf|^2 =  1.545E-16

      iter #   9 total cpu time :    17.5 secs   av.it.:   9.2
      thresh= 1.243E-09 alpha_mix =  0.700 |ddv_scf|^2 =  4.382E-18

      iter #  10 total cpu time :    17.6 secs   av.it.:   9.5
      thresh= 2.093E-10 alpha_mix =  0.700 |ddv_scf|^2 =  4.753E-19

      iter #  11 total cpu time :    17.7 secs   av.it.:   9.0
      thresh= 6.894E-11 alpha_mix =  0.700 |ddv_scf|^2 =  1.181E-20

      iter #  12 total cpu time :    17.7 secs   av.it.:   9.2
      thresh= 1.087E-11 alpha_mix =  0.700 |ddv_scf|^2 =  2.203E-21

      iter #  13 total cpu time :    17.8 secs   av.it.:   9.2
      thresh= 4.693E-12 alpha_mix =  0.700 |ddv_scf|^2 =  1.777E-23

      iter #  14 total cpu time :    18.1 secs   av.it.:   9.2
      thresh= 4.216E-13 alpha_mix =  0.700 |ddv_scf|^2 =  2.614E-25

     End of self-consistent calculation

     Convergence has been achieved 


     Representation #  2 mode #   2

     Self-consistent Calculation

      iter #   1 total cpu time :    18.4 secs   av.it.:   6.8
      thresh= 1.000E-02 alpha_mix =  0.700 |ddv_scf|^2 =  3.287E-05

      iter #   2 total cpu time :    18.7 secs   av.it.:   9.2
      thresh= 5.734E-04 alpha_mix =  0.700 |ddv_scf|^2 =  4.378E-05

      iter #   3 total cpu time :    18.9 secs   av.it.:   8.8
      thresh= 6.617E-04 alpha_mix =  0.700 |ddv_scf|^2 =  1.666E-07

      iter #   4 total cpu time :    19.1 secs   av.it.:   9.0
      thresh= 4.081E-05 alpha_mix =  0.700 |ddv_scf|^2 =  1.292E-09

      iter #   5 total cpu time :    19.5 secs   av.it.:   8.8
      thresh= 3.595E-06 alpha_mix =  0.700 |ddv_scf|^2 =  1.110E-10

      iter #   6 total cpu time :    19.7 secs   av.it.:   9.2
      thresh= 1.054E-06 alpha_mix =  0.700 |ddv_scf|^2 =  1.431E-12

      iter #   7 total cpu time :    19.8 secs   av.it.:   9.0
      thresh= 1.196E-07 alpha_mix =  0.700 |ddv_scf|^2 =  5.110E-14

      iter #   8 total cpu time :    20.1 secs   av.it.:   9.0
      thresh= 2.261E-08 alpha_mix =  0.700 |ddv_scf|^2 =  1.342E-16

      iter #   9 total cpu time :    20.4 secs   av.it.:   9.2
      thresh= 1.158E-09 alpha_mix =  0.700 |ddv_scf|^2 =  3.904E-18

      iter #  10 total cpu time :    20.7 secs   av.it.:   9.8
      thresh= 1.976E-10 alpha_mix =  0.700 |ddv_scf|^2 =  3.991E-19

      iter #  11 total cpu time :    21.0 secs   av.it.:   9.2
      thresh= 6.317E-11 alpha_mix =  0.700 |ddv_scf|^2 =  8.558E-21

      iter #  12 total cpu time :    21.2 secs   av.it.:   9.2
      thresh= 9.251E-12 alpha_mix =  0.700 |ddv_scf|^2 =  1.676E-21

      iter #  13 total cpu time :    21.4 secs   av.it.:   9.2
      thresh= 4.093E-12 alpha_mix =  0.700 |ddv_scf|^2 =  1.707E-23

      iter #  14 total cpu time :    21.7 secs   av.it.:   9.2
      thresh= 4.132E-13 alpha_mix =  0.700 |ddv_scf|^2 =  3.740E-25

     End of self-consistent calculation

     Convergence has been achieved 


     Representation #  3 modes #   3  4

     Self-consistent Calculation

      iter #   1 total cpu time :    22.1 secs   av.it.:   6.2
      thresh= 1.000E-02 alpha_mix =  0.700 |ddv_scf|^2 =  1.523E-07

      iter #   2 total cpu time :    22.3 secs   av.it.:   9.9
      thresh= 3.902E-05 alpha_mix =  0.700 |ddv_scf|^2 =  6.950E-10

      iter #   3 total cpu time :    22.5 secs   av.it.:   9.9
      thresh= 2.636E-06 alpha_mix =  0.700 |ddv_scf|^2 =  1.029E-11

      iter #   4 total cpu time :    22.8 secs   av.it.:   9.6
      thresh= 3.207E-07 alpha_mix =  0.700 |ddv_scf|^2 =  3.039E-13

      iter #   5 total cpu time :    23.0 secs   av.it.:   9.5
      thresh= 5.512E-08 alpha_mix =  0.700 |ddv_scf|^2 =  1.859E-15

      iter #   6 total cpu time :    23.2 secs   av.it.:  10.2
      thresh= 4.312E-09 alpha_mix =  0.700 |ddv_scf|^2 =  2.202E-18

      iter #   7 total cpu time :    23.4 secs   av.it.:  10.1
      thresh= 1.484E-10 alpha_mix =  0.700 |ddv_scf|^2 =  1.212E-20

      iter #   8 total cpu time :    23.7 secs   av.it.:  10.1
      thresh= 1.101E-11 alpha_mix =  0.700 |ddv_scf|^2 =  4.602E-22

      iter #   9 total cpu time :    24.0 secs   av.it.:  10.1
      thresh= 2.145E-12 alpha_mix =  0.700 |ddv_scf|^2 =  1.675E-24

      iter #  10 total cpu time :    24.4 secs   av.it.:  10.2
      thresh= 1.294E-13 alpha_mix =  0.700 |ddv_scf|^2 =  1.801E-27

     End of self-consistent calculation

     Convergence has been achieved 


     Representation #  4 modes #   5  6

     Self-consistent Calculation

      iter #   1 total cpu time :    24.9 secs   av.it.:   6.1
      thresh= 1.000E-02 alpha_mix =  0.700 |ddv_scf|^2 =  1.522E-07

      iter #   2 total cpu time :    25.2 secs   av.it.:   9.9
      thresh= 3.901E-05 alpha_mix =  0.700 |ddv_scf|^2 =  6.916E-10

      iter #   3 total cpu time :    25.4 secs   av.it.:   9.5
      thresh= 2.630E-06 alpha_mix =  0.700 |ddv_scf|^2 =  1.029E-11

      iter #   4 total cpu time :    25.6 secs   av.it.:   9.5
      thresh= 3.207E-07 alpha_mix =  0.700 |ddv_scf|^2 =  3.016E-13

      iter #   5 total cpu time :    25.9 secs   av.it.:   9.4
      thresh= 5.491E-08 alpha_mix =  0.700 |ddv_scf|^2 =  1.871E-15

      iter #   6 total cpu time :    26.1 secs   av.it.:  10.0
      thresh= 4.325E-09 alpha_mix =  0.700 |ddv_scf|^2 =  2.177E-18

      iter #   7 total cpu time :    26.3 secs   av.it.:  10.4
      thresh= 1.475E-10 alpha_mix =  0.700 |ddv_scf|^2 =  1.231E-20

      iter #   8 total cpu time :    26.4 secs   av.it.:  10.1
      thresh= 1.109E-11 alpha_mix =  0.700 |ddv_scf|^2 =  4.599E-22

      iter #   9 total cpu time :    26.6 secs   av.it.:  10.1
      thresh= 2.145E-12 alpha_mix =  0.700 |ddv_scf|^2 =  1.675E-24

      iter #  10 total cpu time :    27.0 secs   av.it.:  10.1
      thresh= 1.294E-13 alpha_mix =  0.700 |ddv_scf|^2 =  2.244E-27

     End of self-consistent calculation

     Convergence has been achieved 
 
     Number of q in the star =    4
     List of q in the star:
          1   0.504024128  -0.504024128   0.504024128
          2  -0.504024128   0.504024128   0.504024128
          3   0.504024128   0.504024128  -0.504024128
          4  -0.504024128  -0.504024128  -0.504024128

     Diagonalizing the dynamical matrix

     q = (    0.504024128  -0.504024128   0.504024128 ) 

 **************************************************************************
     freq (    1) =     -13.842295 [THz] =    -461.729269 [cm-1]
     freq (    2) =     -13.842295 [THz] =    -461.729269 [cm-1]
     freq (    3) =      21.401528 [THz] =     713.878126 [cm-1]
     freq (    4) =      35.471451 [THz] =    1183.200253 [cm-1]
     freq (    5) =      36.570980 [THz] =    1219.876596 [cm-1]
     freq (    6) =      36.570980 [THz] =    1219.876596 [cm-1]
 **************************************************************************

     Mode symmetry, C_3v (3m)   point group:

     freq (  1 -  2) =       -461.7  [cm-1]   --> E    L_3           
     freq (  3 -  3) =        713.9  [cm-1]   --> A_1  L_1           
     freq (  4 -  4) =       1183.2  [cm-1]   --> A_1  L_1           
     freq (  5 -  6) =       1219.9  [cm-1]   --> E    L_3           

     Calculation of q =    0.0000000  -1.0080483   0.0000000

   Info: using nr1, nr2, nr3 values from input

   Info: using nr1, nr2, nr3 values from input
 
     Parallelization info
     --------------------
     sticks:   dense  smooth     PW     G-vecs:    dense   smooth      PW
     Min           6       6      2                   88       88      19
     Max           8       8      3                   90       90      23
     Sum         499     499    187                 7119     7119    1591
 


     bravais-lattice index     =            2
     lattice parameter (alat)  =       6.7034  a.u.
     unit-cell volume          =      73.5168 (a.u.)^3
     number of atoms/cell      =            2
     number of atomic types    =            1
     number of electrons       =         8.00
     number of Kohn-Sham states=            8
     kinetic-energy cutoff     =      80.0000  Ry
     charge density cutoff     =     320.0000  Ry
     Exchange-correlation      = PZ ( 1  1  0  0 0 0)

     celldm(1)=   6.703426  celldm(2)=   0.000000  celldm(3)=   0.000000
     celldm(4)=   0.000000  celldm(5)=   0.000000  celldm(6)=   0.000000

     crystal axes: (cart. coord. in units of alat)
               a(1) = (  -0.496008  -0.000000   0.496008 )  
               a(2) = (  -0.000000   0.496008   0.496008 )  
               a(3) = (  -0.496008   0.496008   0.000000 )  

     reciprocal axes: (cart. coord. in units 2 pi/alat)
               b(1) = ( -1.008048 -1.008048  1.008048 )  
               b(2) = (  1.008048  1.008048  1.008048 )  
               b(3) = ( -1.008048  1.008048 -1.008048 )  


     PseudoPot. # 1 for  C read from file:
     ../C.pz-mt.fhi.UPF
     MD5 check sum: b7c38bc33a0cf75f44be89b84470f298
     Pseudo is Norm-conserving, Zval =  4.0
     Generated using FHI98PP, converted with fhi2upf.x v.5.0.2
     Using radial grid of  461 points,  2 beta functions with: 
                l(1) =   0
                l(2) =   1

     atomic species   valence    mass     pseudopotential
        C              4.00    12.01100      C( 1.00)

     24 Sym. Ops. (no inversion) found



   Cartesian axes

     site n.     atom                  positions (alat units)
         1           C   tau(   1) = (  -0.0000000  -0.0000000   0.0000000  )
         2           C   tau(   2) = (  -0.2480040   0.2480040   0.2480040  )

     number of k points=     8
                       cart. coord. in units 2pi/alat
        k(    1) = (   0.0000000   0.0000000   0.0000000), wk =   0.2500000
        k(    2) = (   0.0000000  -1.0080483   0.0000000), wk =   0.0000000
        k(    3) = (   0.5040241  -0.5040241   0.5040241), wk =   1.0000000
        k(    4) = (   0.5040241  -1.5120724   0.5040241), wk =   0.0000000
        k(    5) = (   0.0000000  -1.0080483   0.0000000), wk =   0.2500000
        k(    6) = (   0.0000000  -2.0160965   0.0000000), wk =   0.0000000
        k(    7) = (   0.0000000  -0.0000000  -1.0080483), wk =   0.5000000
        k(    8) = (   0.0000000  -1.0080483  -1.0080483), wk =   0.0000000

     Dense  grid:     7119 G-vectors     FFT dimensions: (  27,  27,  27)

     Estimated max dynamical RAM per process >       0.24MB

     Estimated total allocated dynamical RAM >      19.55MB
     Message from routine sym_rho_init:
     some processors have no G-vectors for symmetrization
     Message from routine sym_rho_init:
     some processors have no G-vectors for symmetrization
     Message from routine sym_rho_init:
     some processors have no G-vectors for symmetrization
     Message from routine sym_rho_init:
     some processors have no G-vectors for symmetrization
     Message from routine sym_rho_init:
     some processors have no G-vectors for symmetrization
     Message from routine sym_rho_init:
     some processors have no G-vectors for symmetrization
     Message from routine sym_rho_init:
     some processors have no G-vectors for symmetrization
     Message from routine sym_rho_init:
     some processors have no G-vectors for symmetrization
     Message from routine sym_rho_init:
     some processors have no G-vectors for symmetrization
     Message from routine sym_rho_init:
     some processors have no G-vectors for symmetrization
     Message from routine sym_rho_init:
     some processors have no G-vectors for symmetrization
     Message from routine sym_rho_init:
     some processors have no G-vectors for symmetrization
     Message from routine sym_rho_init:
     some processors have no G-vectors for symmetrization
     Message from routine sym_rho_init:
     some processors have no G-vectors for symmetrization
     Message from routine sym_rho_init:
     some processors have no G-vectors for symmetrization
     Message from routine sym_rho_init:
     some processors have no G-vectors for symmetrization
     Message from routine sym_rho_init:
     some processors have no G-vectors for symmetrization
     Message from routine sym_rho_init:
     some processors have no G-vectors for symmetrization
     Message from routine sym_rho_init:
     some processors have no G-vectors for symmetrization
     Message from routine sym_rho_init:
     some processors have no G-vectors for symmetrization
     Message from routine sym_rho_init:
     some processors have no G-vectors for symmetrization
     Message from routine sym_rho_init:
     some processors have no G-vectors for symmetrization
     Message from routine sym_rho_init:
     some processors have no G-vectors for symmetrization
     Message from routine sym_rho_init:
     some processors have no G-vectors for symmetrization
     Message from routine sym_rho_init:
     some processors have no G-vectors for symmetrization
     Message from routine sym_rho_init:
     some processors have no G-vectors for symmetrization
     Message from routine sym_rho_init:
     some processors have no G-vectors for symmetrization
     Message from routine sym_rho_init:
     some processors have no G-vectors for symmetrization
     Message from routine sym_rho_init:
     some processors have no G-vectors for symmetrization
     Message from routine sym_rho_init:
     some processors have no G-vectors for symmetrization
     Message from routine sym_rho_init:
     some processors have no G-vectors for symmetrization
     Message from routine sym_rho_init:
     some processors have no G-vectors for symmetrization
     Message from routine sym_rho_init:
     some processors have no G-vectors for symmetrization
     Message from routine sym_rho_init:
     some processors have no G-vectors for symmetrization

     The potential is recalculated from file :
     ./_ph0/c.q_3/c.save/charge-density.dat

     Starting wfc are   18 atomic wfcs

     Band Structure Calculation
     Davidson diagonalization with overlap

     ethr =  1.25E-10,  avg # of iterations =  7.8

     total cpu time spent up to now is        1.3 secs

     End of band structure calculation

          k = 0.0000 0.0000 0.0000 (   893 PWs)   bands (ev):

    -8.0779  13.7330  13.7330  13.7330  19.4076  19.4076  19.4076  28.0546

          k = 0.0000-1.0080 0.0000 (   894 PWs)   bands (ev):

     0.9027   0.9027   7.2285   7.2285  18.5988  18.5988  30.9603  30.9603

          k = 0.5040-0.5040 0.5040 (   886 PWs)   bands (ev):

    -1.9881  -0.0092  10.8518  10.8518  22.3162  22.3162  23.2865  29.5406

          k = 0.5040-1.5121 0.5040 (   886 PWs)   bands (ev):

    -1.9881  -0.0092  10.8518  10.8518  22.3162  22.3162  23.2865  29.5406

          k = 0.0000-1.0080 0.0000 (   894 PWs)   bands (ev):

     0.9027   0.9027   7.2285   7.2285  18.5988  18.5988  30.9603  30.9603

          k = 0.0000-2.0161 0.0000 (   893 PWs)   bands (ev):

    -8.0779  13.7330  13.7330  13.7330  19.4076  19.4076  19.4076  28.0546

          k = 0.0000-0.0000-1.0080 (   894 PWs)   bands (ev):

     0.9027   0.9027   7.2285   7.2285  18.5988  18.5988  30.9603  30.9603

          k = 0.0000-1.0080-1.0080 (   894 PWs)   bands (ev):

     0.9027   0.9027   7.2285   7.2285  18.5988  18.5988  30.9603  30.9603

     highest occupied, lowest unoccupied level (ev):    13.7330   18.5988

     Writing output data file c.save

                                                                                

     bravais-lattice index     =            2
     lattice parameter (alat)  =       6.7034  a.u.
     unit-cell volume          =      73.5168 (a.u.)^3
     number of atoms/cell      =            2
     number of atomic types    =            1
     kinetic-energy cut-off    =      80.0000  Ry
     charge density cut-off    =     320.0000  Ry
     convergence threshold     =      1.0E-24
     beta                      =       0.7000
     number of iterations used =            4
     Exchange-correlation      = PZ ( 1  1  0  0 0 0)


     celldm(1)=    6.70343  celldm(2)=    0.00000  celldm(3)=    0.00000
     celldm(4)=    0.00000  celldm(5)=    0.00000  celldm(6)=    0.00000

     crystal axes: (cart. coord. in units of alat)
               a(1) = ( -0.4960 -0.0000  0.4960 )  
               a(2) = ( -0.0000  0.4960  0.4960 )  
               a(3) = ( -0.4960  0.4960  0.0000 )  

     reciprocal axes: (cart. coord. in units 2 pi/alat)
               b(1) = ( -1.0080 -1.0080  1.0080 )  
               b(2) = (  1.0080  1.0080  1.0080 )  
               b(3) = ( -1.0080  1.0080 -1.0080 )  


     Atoms inside the unit cell: 

     Cartesian axes

     site n.  atom      mass           positions (alat units)
        1     C   12.0110   tau(    1) = (   -0.00000   -0.00000    0.00000  )
        2     C   12.0110   tau(    2) = (   -0.24800    0.24800    0.24800  )

     Computing dynamical matrix for 
                    q = (   0.0000000  -1.0080483   0.0000000 )
 
      9 Sym.Ops. (with q -> -q+G )


     G cutoff =  364.2368  (     89 G-vectors)     FFT grid: ( 27, 27, 27)
     number of k points=     8

     PseudoPot. # 1 for  C read from file:
     ../C.pz-mt.fhi.UPF
     MD5 check sum: b7c38bc33a0cf75f44be89b84470f298
     Pseudo is Norm-conserving, Zval =  4.0
     Generated using FHI98PP, converted with fhi2upf.x v.5.0.2
     Using radial grid of  461 points,  2 beta functions with: 
                l(1) =   0
                l(2) =   1

     Mode symmetry, D_2d (-42m) point group:


     Atomic displacements:
     There are   4 irreducible representations

     Representation     1      1 modes -A_1  X_1  W_1  To be done

     Representation     2      1 modes -B_2  X_3  W_2  To be done

     Representation     3      2 modes -E    X_5  W_3  To be done

     Representation     4      2 modes -E    X_5  W_3  To be done



     Alpha used in Ewald sum =   2.8000
     PHONON       :     8.05s CPU        29.11s WALL



     Representation #  1 mode #   1

     Self-consistent Calculation

      iter #   1 total cpu time :    29.5 secs   av.it.:   6.5
      thresh= 1.000E-02 alpha_mix =  0.700 |ddv_scf|^2 =  1.405E-05

      iter #   2 total cpu time :    29.9 secs   av.it.:   8.8
      thresh= 3.748E-04 alpha_mix =  0.700 |ddv_scf|^2 =  9.368E-06

      iter #   3 total cpu time :    30.1 secs   av.it.:   8.0
      thresh= 3.061E-04 alpha_mix =  0.700 |ddv_scf|^2 =  2.872E-08

      iter #   4 total cpu time :    30.2 secs   av.it.:   8.8
      thresh= 1.695E-05 alpha_mix =  0.700 |ddv_scf|^2 =  1.770E-10

      iter #   5 total cpu time :    30.4 secs   av.it.:   8.8
      thresh= 1.330E-06 alpha_mix =  0.700 |ddv_scf|^2 =  6.149E-13

      iter #   6 total cpu time :    30.5 secs   av.it.:   8.5
      thresh= 7.842E-08 alpha_mix =  0.700 |ddv_scf|^2 =  2.384E-14

      iter #   7 total cpu time :    30.6 secs   av.it.:   8.8
      thresh= 1.544E-08 alpha_mix =  0.700 |ddv_scf|^2 =  4.593E-17

      iter #   8 total cpu time :    30.7 secs   av.it.:   8.8
      thresh= 6.777E-10 alpha_mix =  0.700 |ddv_scf|^2 =  2.565E-19

      iter #   9 total cpu time :    30.8 secs   av.it.:   8.8
      thresh= 5.064E-11 alpha_mix =  0.700 |ddv_scf|^2 =  7.025E-21

      iter #  10 total cpu time :    30.8 secs   av.it.:   8.5
      thresh= 8.382E-12 alpha_mix =  0.700 |ddv_scf|^2 =  6.812E-23

      iter #  11 total cpu time :    31.1 secs   av.it.:   8.5
      thresh= 8.253E-13 alpha_mix =  0.700 |ddv_scf|^2 =  2.523E-26

     End of self-consistent calculation

     Convergence has been achieved 


     Representation #  2 mode #   2

     Self-consistent Calculation

      iter #   1 total cpu time :    31.5 secs   av.it.:   6.5
      thresh= 1.000E-02 alpha_mix =  0.700 |ddv_scf|^2 =  1.405E-05

      iter #   2 total cpu time :    31.7 secs   av.it.:   8.8
      thresh= 3.749E-04 alpha_mix =  0.700 |ddv_scf|^2 =  9.374E-06

      iter #   3 total cpu time :    31.8 secs   av.it.:   8.0
      thresh= 3.062E-04 alpha_mix =  0.700 |ddv_scf|^2 =  2.864E-08

      iter #   4 total cpu time :    31.9 secs   av.it.:   8.8
      thresh= 1.692E-05 alpha_mix =  0.700 |ddv_scf|^2 =  1.751E-10

      iter #   5 total cpu time :    32.1 secs   av.it.:   8.8
      thresh= 1.323E-06 alpha_mix =  0.700 |ddv_scf|^2 =  6.191E-13

      iter #   6 total cpu time :    32.2 secs   av.it.:   8.2
      thresh= 7.868E-08 alpha_mix =  0.700 |ddv_scf|^2 =  2.407E-14

      iter #   7 total cpu time :    32.3 secs   av.it.:   8.8
      thresh= 1.551E-08 alpha_mix =  0.700 |ddv_scf|^2 =  4.611E-17

      iter #   8 total cpu time :    32.3 secs   av.it.:   8.8
      thresh= 6.791E-10 alpha_mix =  0.700 |ddv_scf|^2 =  6.220E-19

      iter #   9 total cpu time :    32.4 secs   av.it.:   8.8
      thresh= 7.887E-11 alpha_mix =  0.700 |ddv_scf|^2 =  1.783E-20

      iter #  10 total cpu time :    32.5 secs   av.it.:   8.5
      thresh= 1.335E-11 alpha_mix =  0.700 |ddv_scf|^2 =  7.844E-23

      iter #  11 total cpu time :    32.6 secs   av.it.:   8.2
      thresh= 8.857E-13 alpha_mix =  0.700 |ddv_scf|^2 =  1.534E-24

      iter #  12 total cpu time :    32.9 secs   av.it.:   9.0
      thresh= 1.238E-13 alpha_mix =  0.700 |ddv_scf|^2 =  3.916E-26

     End of self-consistent calculation

     Convergence has been achieved 


     Representation #  3 modes #   3  4

     Self-consistent Calculation

      iter #   1 total cpu time :    33.4 secs   av.it.:   6.4
      thresh= 1.000E-02 alpha_mix =  0.700 |ddv_scf|^2 =  3.880E-07

      iter #   2 total cpu time :    33.7 secs   av.it.:   9.2
      thresh= 6.229E-05 alpha_mix =  0.700 |ddv_scf|^2 =  1.932E-08

      iter #   3 total cpu time :    34.0 secs   av.it.:   9.2
      thresh= 1.390E-05 alpha_mix =  0.700 |ddv_scf|^2 =  1.939E-11

      iter #   4 total cpu time :    34.5 secs   av.it.:   9.9
      thresh= 4.403E-07 alpha_mix =  0.700 |ddv_scf|^2 =  3.717E-13

      iter #   5 total cpu time :    34.9 secs   av.it.:   9.5
      thresh= 6.097E-08 alpha_mix =  0.700 |ddv_scf|^2 =  5.744E-16

      iter #   6 total cpu time :    35.2 secs   av.it.:   9.9
      thresh= 2.397E-09 alpha_mix =  0.700 |ddv_scf|^2 =  1.169E-17

      iter #   7 total cpu time :    35.7 secs   av.it.:  10.5
      thresh= 3.419E-10 alpha_mix =  0.700 |ddv_scf|^2 =  6.002E-20

      iter #   8 total cpu time :    35.9 secs   av.it.:   9.9
      thresh= 2.450E-11 alpha_mix =  0.700 |ddv_scf|^2 =  2.238E-21

      iter #   9 total cpu time :    36.3 secs   av.it.:   9.9
      thresh= 4.730E-12 alpha_mix =  0.700 |ddv_scf|^2 =  6.354E-24

      iter #  10 total cpu time :    36.7 secs   av.it.:   9.9
      thresh= 2.521E-13 alpha_mix =  0.700 |ddv_scf|^2 =  4.915E-25

     End of self-consistent calculation

     Convergence has been achieved 


     Representation #  4 modes #   5  6

     Self-consistent Calculation

      iter #   1 total cpu time :    37.2 secs   av.it.:   6.5
      thresh= 1.000E-02 alpha_mix =  0.700 |ddv_scf|^2 =  3.882E-07

      iter #   2 total cpu time :    37.5 secs   av.it.:   9.2
      thresh= 6.231E-05 alpha_mix =  0.700 |ddv_scf|^2 =  1.936E-08

      iter #   3 total cpu time :    37.7 secs   av.it.:   9.2
      thresh= 1.391E-05 alpha_mix =  0.700 |ddv_scf|^2 =  1.923E-11

      iter #   4 total cpu time :    38.0 secs   av.it.:   9.8
      thresh= 4.385E-07 alpha_mix =  0.700 |ddv_scf|^2 =  3.743E-13

      iter #   5 total cpu time :    38.2 secs   av.it.:   9.5
      thresh= 6.118E-08 alpha_mix =  0.700 |ddv_scf|^2 =  6.071E-16

      iter #   6 total cpu time :    38.4 secs   av.it.:   9.9
      thresh= 2.464E-09 alpha_mix =  0.700 |ddv_scf|^2 =  1.088E-17

      iter #   7 total cpu time :    38.8 secs   av.it.:  10.2
      thresh= 3.298E-10 alpha_mix =  0.700 |ddv_scf|^2 =  6.046E-20

      iter #   8 total cpu time :    39.2 secs   av.it.:  10.0
      thresh= 2.459E-11 alpha_mix =  0.700 |ddv_scf|^2 =  1.569E-21

      iter #   9 total cpu time :    39.6 secs   av.it.:   9.9
      thresh= 3.961E-12 alpha_mix =  0.700 |ddv_scf|^2 =  1.341E-23

      iter #  10 total cpu time :    40.1 secs   av.it.:   9.9
      thresh= 3.663E-13 alpha_mix =  0.700 |ddv_scf|^2 =  6.695E-25

     End of self-consistent calculation

     Convergence has been achieved 
 
     Number of q in the star =    3
     List of q in the star:
          1   0.000000000  -1.008048256   0.000000000
          2   0.000000000  -0.000000000  -1.008048256
          3  -1.008048256   0.000000000   0.000000000

     Diagonalizing the dynamical matrix

     q = (    0.000000000  -1.008048256   0.000000000 ) 

 **************************************************************************
     freq (    1) =       6.195091 [THz] =     206.645997 [cm-1]
     freq (    2) =       6.195091 [THz] =     206.645997 [cm-1]
     freq (    3) =      27.605925 [THz] =     920.834532 [cm-1]
     freq (    4) =      27.605925 [THz] =     920.834532 [cm-1]
     freq (    5) =      31.194124 [THz] =    1040.523969 [cm-1]
     freq (    6) =      31.194512 [THz] =    1040.536902 [cm-1]
 **************************************************************************

     Mode symmetry, D_2d (-42m) point group:

     freq (  1 -  2) =        206.6  [cm-1]   --> E    X_5  W_3      
     freq (  3 -  4) =        920.8  [cm-1]   --> E    X_5  W_3      
     freq (  5 -  5) =       1040.5  [cm-1]   --> A_1  X_1  W_1      
     freq (  6 -  6) =       1040.5  [cm-1]   --> B_2  X_3  W_2      
 
     init_run     :      0.08s CPU      0.23s WALL (       2 calls)
     electrons    :      0.20s CPU      0.57s WALL (       2 calls)

     Called by init_run:
     wfcinit      :      0.00s CPU      0.02s WALL (       2 calls)
     potinit      :      0.01s CPU      0.02s WALL (       2 calls)

     Called by electrons:
     c_bands      :      0.20s CPU      0.57s WALL (       2 calls)
     v_of_rho     :      0.00s CPU      0.01s WALL (       3 calls)

     Called by c_bands:
     init_us_2    :      0.00s CPU      0.01s WALL (     533 calls)
     cegterg      :      0.14s CPU      0.36s WALL (      16 calls)

     Called by sum_band:

     Called by *egterg:
     h_psi        :      3.25s CPU      8.26s WALL (    8481 calls)
     g_psi        :      0.00s CPU      0.00s WALL (     126 calls)
     cdiaghg      :      0.02s CPU      0.06s WALL (     142 calls)

     Called by h_psi:
     h_psi:pot    :      3.23s CPU      8.25s WALL (    8481 calls)
     h_psi:calbec :      0.32s CPU      0.85s WALL (    8481 calls)
     vloc_psi     :      2.83s CPU      7.30s WALL (    8481 calls)
     add_vuspsi   :      0.05s CPU      0.06s WALL (    8481 calls)

     General routines
     calbec       :      0.76s CPU      2.03s WALL (   17187 calls)
     fft          :      0.32s CPU      0.69s WALL (     657 calls)
     ffts         :      0.05s CPU      0.09s WALL (     144 calls)
     fftw         :      3.28s CPU      8.89s WALL (   76350 calls)
     davcio       :      0.06s CPU      0.94s WALL (    4423 calls)
 
     Parallel routines
     fft_scatter  :      3.02s CPU      8.83s WALL (   77151 calls)
 
     PHONON       :    11.16s CPU        40.76s WALL

     INITIALIZATION: 
     phq_setup    :      0.01s CPU      0.03s WALL (       3 calls)
     phq_init     :      0.03s CPU      0.08s WALL (       3 calls)
 
     phq_init     :      0.03s CPU      0.08s WALL (       3 calls)
     init_vloc    :      0.00s CPU      0.00s WALL (       3 calls)
     init_us_1    :      0.04s CPU      0.11s WALL (       3 calls)
 
     DYNAMICAL MATRIX:
     dynmat0      :      0.01s CPU      0.02s WALL (       3 calls)
     phqscf       :      8.77s CPU     29.68s WALL (       3 calls)
     dynmatrix    :      0.00s CPU      0.02s WALL (       3 calls)
 
     phqscf       :      8.77s CPU     29.68s WALL (       3 calls)
     solve_linter :      8.72s CPU     29.54s WALL (      10 calls)
     drhodv       :      0.05s CPU      0.10s WALL (      10 calls)
 
     dynmat0      :      0.01s CPU      0.02s WALL (       3 calls)
     dynmat_us    :      0.01s CPU      0.01s WALL (       3 calls)
     d2ionq       :      0.00s CPU      0.00s WALL (       3 calls)
 
     dynmat_us    :      0.01s CPU      0.01s WALL (       3 calls)
 
     phqscf       :      8.77s CPU     29.68s WALL (       3 calls)
     solve_linter :      8.72s CPU     29.54s WALL (      10 calls)
 
     solve_linter :      8.72s CPU     29.54s WALL (      10 calls)
     dvqpsi_us    :      0.09s CPU      0.20s WALL (      84 calls)
     ortho        :      0.04s CPU      0.11s WALL (     785 calls)
     cgsolve      :      4.66s CPU     12.30s WALL (     785 calls)
     incdrhoscf   :      0.30s CPU      0.86s WALL (     776 calls)
     vpsifft      :      0.25s CPU      0.77s WALL (     638 calls)
     dv_of_drho   :      0.32s CPU      0.66s WALL (     215 calls)
     mix_pot      :      1.35s CPU     10.00s WALL (     119 calls)
     psymdvscf    :      1.50s CPU      3.25s WALL (     111 calls)
 
     dvqpsi_us    :      0.09s CPU      0.20s WALL (      84 calls)
     dvqpsi_us_on :      0.00s CPU      0.00s WALL (      84 calls)
 
     cgsolve      :      4.66s CPU     12.30s WALL (     785 calls)
     ch_psi       :      3.97s CPU     10.18s WALL (    8323 calls)
 
     ch_psi       :      3.97s CPU     10.18s WALL (    8323 calls)
     h_psi        :      3.25s CPU      8.26s WALL (    8481 calls)
     last         :      0.83s CPU      2.26s WALL (    8323 calls)
 
     h_psi        :      3.25s CPU      8.26s WALL (    8481 calls)
     add_vuspsi   :      0.05s CPU      0.06s WALL (    8481 calls)
 
     incdrhoscf   :      0.30s CPU      0.86s WALL (     776 calls)
 
 
      General routines
     calbec       :      0.76s CPU      2.03s WALL (   17187 calls)
     fft          :      0.32s CPU      0.69s WALL (     657 calls)
     ffts         :      0.05s CPU      0.09s WALL (     144 calls)
     fftw         :      3.28s CPU      8.89s WALL (   76350 calls)
     davcio       :      0.06s CPU      0.94s WALL (    4423 calls)
     write_rec    :      0.21s CPU      1.15s WALL (     129 calls)
 
 
     PHONON       :    11.16s CPU        40.77s WALL

 
   This run was terminated on:   9:23:36   8Dec2020            

=------------------------------------------------------------------------------=
   JOB DONE.
=------------------------------------------------------------------------------=
