
     Program PWSCF v.6.1 (svn rev. 13369) starts on  9Jan2021 at  3:22:20 

     This program is part of the open-source Quantum ESPRESSO suite
     for quantum simulation of materials; please cite
         "P. Giannozzi et al., J. Phys.:Condens. Matter 21 395502 (2009);
          URL http://www.quantum-espresso.org", 
     in publications or presentations arising from this work. More details at
     http://www.quantum-espresso.org/quote

     Parallel version (MPI & OpenMP), running on      80 processor cores
     Number of MPI processes:                80
     Threads/MPI process:                     1
     R & G space division:  proc/nbgrp/npool/nimage =      80
     Waiting for input...
     Reading input from standard input

     Current dimensions of program PWSCF are:
     Max number of different atomic species (ntypx) = 10
     Max number of k-points (npk) =  40000
     Max angular momentum in pseudopotentials (lmaxx) =  3

     IMPORTANT: XC functional enforced from input :
     Exchange-correlation      = PBE ( 1  4  3  4 0 0)
     Any further DFT definition will be discarded
     Please, verify this is what you really want


     Subspace diagonalization in iterative solution of the eigenvalue problem:
     one sub-group per band group will be used
     scalapack distributed-memory algorithm (size of sub-group:  6*  6 procs)

 
     Parallelization info
     --------------------
     sticks:   dense  smooth     PW     G-vecs:    dense   smooth      PW
     Min           4       4      1                   58       58       9
     Max           5       5      2                   64       64      14
     Sum         379     379    121                 4909     4909     941
 


     bravais-lattice index     =            2
     lattice parameter (alat)  =       6.7798  a.u.
     unit-cell volume          =      77.9102 (a.u.)^3
     number of atoms/cell      =            2
     number of atomic types    =            1
     number of electrons       =         8.00
     number of Kohn-Sham states=            8
     kinetic-energy cutoff     =      60.0000  Ry
     charge density cutoff     =     240.0000  Ry
     convergence threshold     =      1.0E-20
     mixing beta               =       0.7000
     number of iterations used =            8  plain     mixing
     Exchange-correlation      = PBE ( 1  4  3  4 0 0)

     celldm(1)=   6.779820  celldm(2)=   0.000000  celldm(3)=   0.000000
     celldm(4)=   0.000000  celldm(5)=   0.000000  celldm(6)=   0.000000

     crystal axes: (cart. coord. in units of alat)
               a(1) = (  -0.500000   0.000000   0.500000 )  
               a(2) = (   0.000000   0.500000   0.500000 )  
               a(3) = (  -0.500000   0.500000   0.000000 )  

     reciprocal axes: (cart. coord. in units 2 pi/alat)
               b(1) = ( -1.000000 -1.000000  1.000000 )  
               b(2) = (  1.000000  1.000000  1.000000 )  
               b(3) = ( -1.000000  1.000000 -1.000000 )  


     PseudoPot. # 1 for C  read from file:
     ../../C_ONCV_PBE-1.0.upf
     MD5 check sum: 40f8c33130f0afa4272e9dcc1c4fb0df
     Pseudo is Norm-conserving, Zval =  4.0
     Generated using ONCVPSP code by D. R. Hamann
     Using radial grid of  602 points,  4 beta functions with: 
                l(1) =   0
                l(2) =   0
                l(3) =   1
                l(4) =   1

     atomic species   valence    mass     pseudopotential
        C              4.00    12.01100     C ( 1.00)

     No symmetry found



   Cartesian axes

     site n.     atom                  positions (alat units)
         1           C   tau(   1) = (   0.0000000   0.0000000   0.0000000  )
         2           C   tau(   2) = (  -0.2500000   0.2500000   0.2500000  )

     number of k points=    64
                       cart. coord. in units 2pi/alat
        k(    1) = (   0.0000000   0.0000000   0.0000000), wk =   0.0312500
        k(    2) = (  -0.2500000   0.2500000  -0.2500000), wk =   0.0312500
        k(    3) = (   0.5000000  -0.5000000   0.5000000), wk =   0.0312500
        k(    4) = (   0.2500000  -0.2500000   0.2500000), wk =   0.0312500
        k(    5) = (   0.2500000   0.2500000   0.2500000), wk =   0.0312500
        k(    6) = (   0.0000000   0.5000000   0.0000000), wk =   0.0312500
        k(    7) = (   0.7500000  -0.2500000   0.7500000), wk =   0.0312500
        k(    8) = (   0.5000000   0.0000000   0.5000000), wk =   0.0312500
        k(    9) = (  -0.5000000  -0.5000000  -0.5000000), wk =   0.0312500
        k(   10) = (  -0.7500000  -0.2500000  -0.7500000), wk =   0.0312500
        k(   11) = (   0.0000000  -1.0000000   0.0000000), wk =   0.0312500
        k(   12) = (  -0.2500000  -0.7500000  -0.2500000), wk =   0.0312500
        k(   13) = (  -0.2500000  -0.2500000  -0.2500000), wk =   0.0312500
        k(   14) = (  -0.5000000   0.0000000  -0.5000000), wk =   0.0312500
        k(   15) = (   0.2500000  -0.7500000   0.2500000), wk =   0.0312500
        k(   16) = (   0.0000000  -0.5000000   0.0000000), wk =   0.0312500
        k(   17) = (  -0.2500000  -0.2500000   0.2500000), wk =   0.0312500
        k(   18) = (  -0.5000000   0.0000000   0.0000000), wk =   0.0312500
        k(   19) = (   0.2500000  -0.7500000   0.7500000), wk =   0.0312500
        k(   20) = (   0.0000000  -0.5000000   0.5000000), wk =   0.0312500
        k(   21) = (   0.0000000   0.0000000   0.5000000), wk =   0.0312500
        k(   22) = (  -0.2500000   0.2500000   0.2500000), wk =   0.0312500
        k(   23) = (   0.5000000  -0.5000000   1.0000000), wk =   0.0312500
        k(   24) = (   0.2500000  -0.2500000   0.7500000), wk =   0.0312500
        k(   25) = (  -0.7500000  -0.7500000  -0.2500000), wk =   0.0312500
        k(   26) = (  -1.0000000  -0.5000000  -0.5000000), wk =   0.0312500
        k(   27) = (  -0.2500000  -1.2500000   0.2500000), wk =   0.0312500
        k(   28) = (  -0.5000000  -1.0000000   0.0000000), wk =   0.0312500
        k(   29) = (  -0.5000000  -0.5000000   0.0000000), wk =   0.0312500
        k(   30) = (  -0.7500000  -0.2500000  -0.2500000), wk =   0.0312500
        k(   31) = (   0.0000000  -1.0000000   0.5000000), wk =   0.0312500
        k(   32) = (  -0.2500000  -0.7500000   0.2500000), wk =   0.0312500
        k(   33) = (   0.5000000   0.5000000  -0.5000000), wk =   0.0312500
        k(   34) = (   0.2500000   0.7500000  -0.7500000), wk =   0.0312500
        k(   35) = (   1.0000000   0.0000000   0.0000000), wk =   0.0312500
        k(   36) = (   0.7500000   0.2500000  -0.2500000), wk =   0.0312500
        k(   37) = (   0.7500000   0.7500000  -0.2500000), wk =   0.0312500
        k(   38) = (   0.5000000   1.0000000  -0.5000000), wk =   0.0312500
        k(   39) = (   1.2500000   0.2500000   0.2500000), wk =   0.0312500
        k(   40) = (   1.0000000   0.5000000   0.0000000), wk =   0.0312500
        k(   41) = (   0.0000000   0.0000000  -1.0000000), wk =   0.0312500
        k(   42) = (  -0.2500000   0.2500000  -1.2500000), wk =   0.0312500
        k(   43) = (   0.5000000  -0.5000000  -0.5000000), wk =   0.0312500
        k(   44) = (   0.2500000  -0.2500000  -0.7500000), wk =   0.0312500
        k(   45) = (   0.2500000   0.2500000  -0.7500000), wk =   0.0312500
        k(   46) = (   0.0000000   0.5000000  -1.0000000), wk =   0.0312500
        k(   47) = (   0.7500000  -0.2500000  -0.2500000), wk =   0.0312500
        k(   48) = (   0.5000000   0.0000000  -0.5000000), wk =   0.0312500
        k(   49) = (   0.2500000   0.2500000  -0.2500000), wk =   0.0312500
        k(   50) = (   0.0000000   0.5000000  -0.5000000), wk =   0.0312500
        k(   51) = (   0.7500000  -0.2500000   0.2500000), wk =   0.0312500
        k(   52) = (   0.5000000   0.0000000   0.0000000), wk =   0.0312500
        k(   53) = (   0.5000000   0.5000000   0.0000000), wk =   0.0312500
        k(   54) = (   0.2500000   0.7500000  -0.2500000), wk =   0.0312500
        k(   55) = (   1.0000000   0.0000000   0.5000000), wk =   0.0312500
        k(   56) = (   0.7500000   0.2500000   0.2500000), wk =   0.0312500
        k(   57) = (  -0.2500000  -0.2500000  -0.7500000), wk =   0.0312500
        k(   58) = (  -0.5000000   0.0000000  -1.0000000), wk =   0.0312500
        k(   59) = (   0.2500000  -0.7500000  -0.2500000), wk =   0.0312500
        k(   60) = (   0.0000000  -0.5000000  -0.5000000), wk =   0.0312500
        k(   61) = (   0.0000000   0.0000000  -0.5000000), wk =   0.0312500
        k(   62) = (  -0.2500000   0.2500000  -0.7500000), wk =   0.0312500
        k(   63) = (   0.5000000  -0.5000000   0.0000000), wk =   0.0312500
        k(   64) = (   0.2500000  -0.2500000  -0.2500000), wk =   0.0312500

     Dense  grid:     4909 G-vectors     FFT dimensions: (  24,  24,  24)

     Estimated max dynamical RAM per process >       0.17MB

     Estimated total allocated dynamical RAM >      13.48MB

     Initial potential from superposition of free atoms

     starting charge    7.98607, renormalised to    8.00000
     Starting wfc are random

     total cpu time spent up to now is        1.5 secs

     per-process dynamical memory:    32.1 Mb

     Self-consistent Calculation

     iteration #  1     ecut=    60.00 Ry     beta=0.70
     Davidson diagonalization with overlap
     ethr =  1.00E-02,  avg # of iterations =  7.3

     total cpu time spent up to now is        5.7 secs

     total energy              =     -22.76585810 Ry
     Harris-Foulkes estimate   =     -22.81484985 Ry
     estimated scf accuracy    <       0.11367500 Ry

     iteration #  2     ecut=    60.00 Ry     beta=0.70
     Davidson diagonalization with overlap
     ethr =  1.42E-03,  avg # of iterations =  2.6

     total cpu time spent up to now is        7.5 secs

     total energy              =     -22.77324343 Ry
     Harris-Foulkes estimate   =     -22.77356155 Ry
     estimated scf accuracy    <       0.00254310 Ry

     iteration #  3     ecut=    60.00 Ry     beta=0.70
     Davidson diagonalization with overlap
     ethr =  3.18E-05,  avg # of iterations =  2.8

     total cpu time spent up to now is        9.8 secs

     total energy              =     -22.77368529 Ry
     Harris-Foulkes estimate   =     -22.77367229 Ry
     estimated scf accuracy    <       0.00007932 Ry

     iteration #  4     ecut=    60.00 Ry     beta=0.70
     Davidson diagonalization with overlap
     ethr =  9.92E-07,  avg # of iterations =  2.2

     total cpu time spent up to now is       11.9 secs

     total energy              =     -22.77368978 Ry
     Harris-Foulkes estimate   =     -22.77369318 Ry
     estimated scf accuracy    <       0.00000703 Ry

     iteration #  5     ecut=    60.00 Ry     beta=0.70
     Davidson diagonalization with overlap
     ethr =  8.79E-08,  avg # of iterations =  2.0

     total cpu time spent up to now is       14.0 secs

     total energy              =     -22.77369098 Ry
     Harris-Foulkes estimate   =     -22.77369112 Ry
     estimated scf accuracy    <       0.00000031 Ry

     iteration #  6     ecut=    60.00 Ry     beta=0.70
     Davidson diagonalization with overlap
     ethr =  3.85E-09,  avg # of iterations =  2.3

     total cpu time spent up to now is       16.7 secs

     total energy              =     -22.77369104 Ry
     Harris-Foulkes estimate   =     -22.77369103 Ry
     estimated scf accuracy    <          9.4E-09 Ry

     iteration #  7     ecut=    60.00 Ry     beta=0.70
     Davidson diagonalization with overlap
     ethr =  1.17E-10,  avg # of iterations =  2.6

     total cpu time spent up to now is       19.7 secs

     total energy              =     -22.77369104 Ry
     Harris-Foulkes estimate   =     -22.77369104 Ry
     estimated scf accuracy    <          1.3E-10 Ry

     iteration #  8     ecut=    60.00 Ry     beta=0.70
     Davidson diagonalization with overlap
     ethr =  1.64E-12,  avg # of iterations =  3.1

     total cpu time spent up to now is       23.5 secs

     total energy              =     -22.77369104 Ry
     Harris-Foulkes estimate   =     -22.77369104 Ry
     estimated scf accuracy    <          2.3E-12 Ry

     iteration #  9     ecut=    60.00 Ry     beta=0.70
     Davidson diagonalization with overlap
     ethr =  1.00E-13,  avg # of iterations =  2.1

     total cpu time spent up to now is       26.5 secs

     total energy              =     -22.77369104 Ry
     Harris-Foulkes estimate   =     -22.77369104 Ry
     estimated scf accuracy    <          1.9E-14 Ry

     iteration # 10     ecut=    60.00 Ry     beta=0.70
     Davidson diagonalization with overlap
     ethr =  1.00E-13,  avg # of iterations =  1.0

     total cpu time spent up to now is       28.7 secs

     total energy              =     -22.77369104 Ry
     Harris-Foulkes estimate   =     -22.77369104 Ry
     estimated scf accuracy    <          2.1E-16 Ry

     iteration # 11     ecut=    60.00 Ry     beta=0.70
     Davidson diagonalization with overlap
     ethr =  1.00E-13,  avg # of iterations =  1.0

     total cpu time spent up to now is       31.2 secs

     total energy              =     -22.77369104 Ry
     Harris-Foulkes estimate   =     -22.77369104 Ry
     estimated scf accuracy    <          5.0E-17 Ry

     iteration # 12     ecut=    60.00 Ry     beta=0.70
     Davidson diagonalization with overlap
     ethr =  1.00E-13,  avg # of iterations =  1.0

     total cpu time spent up to now is       33.7 secs

     total energy              =     -22.77369104 Ry
     Harris-Foulkes estimate   =     -22.77369104 Ry
     estimated scf accuracy    <          4.7E-19 Ry

     iteration # 13     ecut=    60.00 Ry     beta=0.70
     Davidson diagonalization with overlap
     ethr =  1.00E-13,  avg # of iterations =  1.0

     total cpu time spent up to now is       36.5 secs

     total energy              =     -22.77369104 Ry
     Harris-Foulkes estimate   =     -22.77369104 Ry
     estimated scf accuracy    <          3.9E-20 Ry

     iteration # 14     ecut=    60.00 Ry     beta=0.70
     Davidson diagonalization with overlap
     ethr =  1.00E-13,  avg # of iterations =  1.0

     total cpu time spent up to now is       39.4 secs

     End of self-consistent calculation

          k = 0.0000 0.0000 0.0000 (   609 PWs)   bands (ev):

    -8.1841  13.0357  13.0357  13.0357  18.5873  18.5873  18.5873  25.9737

          k =-0.2500 0.2500-0.2500 (   607 PWs)   bands (ev):

    -6.4917   6.5353  11.3240  11.3240  20.7496  20.7496  21.0345  27.3817

          k = 0.5000-0.5000 0.5000 (   610 PWs)   bands (ev):

    -2.5094  -0.1364  10.2831  10.2831  21.4331  21.4331  21.6741  28.5722

          k = 0.2500-0.2500 0.2500 (   607 PWs)   bands (ev):

    -6.4917   6.5353  11.3240  11.3240  20.7496  20.7496  21.0345  27.3817

          k = 0.2500 0.2500 0.2500 (   607 PWs)   bands (ev):

    -6.4917   6.5353  11.3240  11.3240  20.7496  20.7496  21.0345  27.3817

          k = 0.0000 0.5000 0.0000 (   592 PWs)   bands (ev):

    -5.9296   8.5528   8.9920   8.9920  17.4547  23.1919  24.4689  24.4689

          k = 0.7500-0.2500 0.7500 (   616 PWs)   bands (ev):

    -2.2485   2.3869   6.3951   8.2434  19.0853  24.3490  25.6777  26.1365

          k = 0.5000 0.0000 0.5000 (   616 PWs)   bands (ev):

    -3.7783   4.4340   5.5554  10.0770  20.8936  22.9239  25.2145  26.6960

          k =-0.5000-0.5000-0.5000 (   610 PWs)   bands (ev):

    -2.5094  -0.1364  10.2831  10.2831  21.4331  21.4331  21.6741  28.5722

          k =-0.7500-0.2500-0.7500 (   616 PWs)   bands (ev):

    -2.2485   2.3869   6.3951   8.2434  19.0853  24.3490  25.6777  26.1365

          k = 0.0000-1.0000 0.0000 (   620 PWs)   bands (ev):

     0.4109   0.4109   6.8437   6.8437  17.7899  17.7899  29.5538  29.5538

          k =-0.2500-0.7500-0.2500 (   616 PWs)   bands (ev):

    -2.2485   2.3869   6.3951   8.2434  19.0853  24.3490  25.6777  26.1365

          k =-0.2500-0.2500-0.2500 (   607 PWs)   bands (ev):

    -6.4917   6.5353  11.3240  11.3240  20.7496  20.7496  21.0345  27.3817

          k =-0.5000 0.0000-0.5000 (   616 PWs)   bands (ev):

    -3.7783   4.4340   5.5554  10.0770  20.8936  22.9239  25.2145  26.6960

          k = 0.2500-0.7500 0.2500 (   616 PWs)   bands (ev):

    -2.2485   2.3869   6.3951   8.2434  19.0853  24.3490  25.6777  26.1365

          k = 0.0000-0.5000 0.0000 (   592 PWs)   bands (ev):

    -5.9296   8.5528   8.9920   8.9920  17.4547  23.1919  24.4689  24.4689

          k =-0.2500-0.2500 0.2500 (   607 PWs)   bands (ev):

    -6.4917   6.5353  11.3240  11.3240  20.7496  20.7496  21.0345  27.3817

          k =-0.5000 0.0000 0.0000 (   592 PWs)   bands (ev):

    -5.9296   8.5528   8.9920   8.9920  17.4547  23.1919  24.4689  24.4689

          k = 0.2500-0.7500 0.7500 (   616 PWs)   bands (ev):

    -2.2485   2.3869   6.3951   8.2434  19.0853  24.3490  25.6777  26.1365

          k = 0.0000-0.5000 0.5000 (   616 PWs)   bands (ev):

    -3.7783   4.4340   5.5554  10.0770  20.8936  22.9239  25.2145  26.6960

          k = 0.0000 0.0000 0.5000 (   592 PWs)   bands (ev):

    -5.9296   8.5528   8.9920   8.9920  17.4547  23.1919  24.4689  24.4689

          k =-0.2500 0.2500 0.2500 (   607 PWs)   bands (ev):

    -6.4917   6.5353  11.3240  11.3240  20.7496  20.7496  21.0345  27.3817

          k = 0.5000-0.5000 1.0000 (   616 PWs)   bands (ev):

    -3.7783   4.4340   5.5554  10.0770  20.8936  22.9239  25.2145  26.6960

          k = 0.2500-0.2500 0.7500 (   616 PWs)   bands (ev):

    -2.2485   2.3869   6.3951   8.2434  19.0853  24.3490  25.6777  26.1365

          k =-0.7500-0.7500-0.2500 (   616 PWs)   bands (ev):

    -2.2485   2.3869   6.3951   8.2434  19.0853  24.3490  25.6777  26.1365

          k =-1.0000-0.5000-0.5000 (   616 PWs)   bands (ev):

    -3.7783   4.4340   5.5554  10.0770  20.8936  22.9239  25.2145  26.6960

          k =-0.2500-1.2500 0.2500 (   616 PWs)   bands (ev):

    -2.2485   2.3869   6.3951   8.2434  19.0853  24.3490  25.6777  26.1365

          k =-0.5000-1.0000 0.0000 (   616 PWs)   bands (ev):

     1.1751   1.1751   4.8688   4.8688  23.5965  23.5965  25.1348  25.1348

          k =-0.5000-0.5000 0.0000 (   616 PWs)   bands (ev):

    -3.7783   4.4340   5.5554  10.0770  20.8936  22.9239  25.2145  26.6960

          k =-0.7500-0.2500-0.2500 (   616 PWs)   bands (ev):

    -2.2485   2.3869   6.3951   8.2434  19.0853  24.3490  25.6777  26.1365

          k = 0.0000-1.0000 0.5000 (   616 PWs)   bands (ev):

     1.1751   1.1751   4.8688   4.8688  23.5965  23.5965  25.1348  25.1348

          k =-0.2500-0.7500 0.2500 (   616 PWs)   bands (ev):

    -2.2485   2.3869   6.3951   8.2434  19.0853  24.3490  25.6777  26.1365

          k = 0.5000 0.5000-0.5000 (   610 PWs)   bands (ev):

    -2.5094  -0.1364  10.2831  10.2831  21.4331  21.4331  21.6741  28.5722

          k = 0.2500 0.7500-0.7500 (   616 PWs)   bands (ev):

    -2.2485   2.3869   6.3951   8.2434  19.0853  24.3490  25.6777  26.1365

          k = 1.0000 0.0000 0.0000 (   620 PWs)   bands (ev):

     0.4109   0.4109   6.8437   6.8437  17.7899  17.7899  29.5538  29.5538

          k = 0.7500 0.2500-0.2500 (   616 PWs)   bands (ev):

    -2.2485   2.3869   6.3951   8.2434  19.0853  24.3490  25.6777  26.1365

          k = 0.7500 0.7500-0.2500 (   616 PWs)   bands (ev):

    -2.2485   2.3869   6.3951   8.2434  19.0853  24.3490  25.6777  26.1365

          k = 0.5000 1.0000-0.5000 (   616 PWs)   bands (ev):

    -3.7783   4.4340   5.5554  10.0770  20.8936  22.9239  25.2145  26.6960

          k = 1.2500 0.2500 0.2500 (   616 PWs)   bands (ev):

    -2.2485   2.3869   6.3951   8.2434  19.0853  24.3490  25.6777  26.1365

          k = 1.0000 0.5000 0.0000 (   616 PWs)   bands (ev):

     1.1751   1.1751   4.8688   4.8688  23.5965  23.5965  25.1348  25.1348

          k = 0.0000 0.0000-1.0000 (   620 PWs)   bands (ev):

     0.4109   0.4109   6.8437   6.8437  17.7899  17.7899  29.5538  29.5538

          k =-0.2500 0.2500-1.2500 (   616 PWs)   bands (ev):

    -2.2485   2.3869   6.3951   8.2434  19.0853  24.3490  25.6777  26.1365

          k = 0.5000-0.5000-0.5000 (   610 PWs)   bands (ev):

    -2.5094  -0.1364  10.2831  10.2831  21.4331  21.4331  21.6741  28.5722

          k = 0.2500-0.2500-0.7500 (   616 PWs)   bands (ev):

    -2.2485   2.3869   6.3951   8.2434  19.0853  24.3490  25.6777  26.1365

          k = 0.2500 0.2500-0.7500 (   616 PWs)   bands (ev):

    -2.2485   2.3869   6.3951   8.2434  19.0853  24.3490  25.6777  26.1365

          k = 0.0000 0.5000-1.0000 (   616 PWs)   bands (ev):

     1.1751   1.1751   4.8688   4.8688  23.5965  23.5965  25.1348  25.1348

          k = 0.7500-0.2500-0.2500 (   616 PWs)   bands (ev):

    -2.2485   2.3869   6.3951   8.2434  19.0853  24.3490  25.6777  26.1365

          k = 0.5000 0.0000-0.5000 (   616 PWs)   bands (ev):

    -3.7783   4.4340   5.5554  10.0770  20.8936  22.9239  25.2145  26.6960

          k = 0.2500 0.2500-0.2500 (   607 PWs)   bands (ev):

    -6.4917   6.5353  11.3240  11.3240  20.7496  20.7496  21.0345  27.3817

          k = 0.0000 0.5000-0.5000 (   616 PWs)   bands (ev):

    -3.7783   4.4340   5.5554  10.0770  20.8936  22.9239  25.2145  26.6960

          k = 0.7500-0.2500 0.2500 (   616 PWs)   bands (ev):

    -2.2485   2.3869   6.3951   8.2434  19.0853  24.3490  25.6777  26.1365

          k = 0.5000 0.0000 0.0000 (   592 PWs)   bands (ev):

    -5.9296   8.5528   8.9920   8.9920  17.4547  23.1919  24.4689  24.4689

          k = 0.5000 0.5000 0.0000 (   616 PWs)   bands (ev):

    -3.7783   4.4340   5.5554  10.0770  20.8936  22.9239  25.2145  26.6960

          k = 0.2500 0.7500-0.2500 (   616 PWs)   bands (ev):

    -2.2485   2.3869   6.3951   8.2434  19.0853  24.3490  25.6777  26.1365

          k = 1.0000 0.0000 0.5000 (   616 PWs)   bands (ev):

     1.1751   1.1751   4.8688   4.8688  23.5965  23.5965  25.1348  25.1348

          k = 0.7500 0.2500 0.2500 (   616 PWs)   bands (ev):

    -2.2485   2.3869   6.3951   8.2434  19.0853  24.3490  25.6777  26.1365

          k =-0.2500-0.2500-0.7500 (   616 PWs)   bands (ev):

    -2.2485   2.3869   6.3951   8.2434  19.0853  24.3490  25.6777  26.1365

          k =-0.5000 0.0000-1.0000 (   616 PWs)   bands (ev):

     1.1751   1.1751   4.8688   4.8688  23.5965  23.5965  25.1348  25.1348

          k = 0.2500-0.7500-0.2500 (   616 PWs)   bands (ev):

    -2.2485   2.3869   6.3951   8.2434  19.0853  24.3490  25.6777  26.1365

          k = 0.0000-0.5000-0.5000 (   616 PWs)   bands (ev):

    -3.7783   4.4340   5.5554  10.0770  20.8936  22.9239  25.2145  26.6960

          k = 0.0000 0.0000-0.5000 (   592 PWs)   bands (ev):

    -5.9296   8.5528   8.9920   8.9920  17.4547  23.1919  24.4689  24.4689

          k =-0.2500 0.2500-0.7500 (   616 PWs)   bands (ev):

    -2.2485   2.3869   6.3951   8.2434  19.0853  24.3490  25.6777  26.1365

          k = 0.5000-0.5000 0.0000 (   616 PWs)   bands (ev):

    -3.7783   4.4340   5.5554  10.0770  20.8936  22.9239  25.2145  26.6960

          k = 0.2500-0.2500-0.2500 (   607 PWs)   bands (ev):

    -6.4917   6.5353  11.3240  11.3240  20.7496  20.7496  21.0345  27.3817

     highest occupied, lowest unoccupied level (ev):    13.0357   17.4547

!    total energy              =     -22.77369104 Ry
     Harris-Foulkes estimate   =     -22.77369104 Ry
     estimated scf accuracy    <          3.9E-21 Ry

     The total energy is the sum of the following terms:

     one-electron contribution =       7.77496090 Ry
     hartree contribution      =       1.97124425 Ry
     xc contribution           =      -7.09480597 Ry
     ewald contribution        =     -25.42509022 Ry

     convergence has been achieved in  14 iterations

     Writing output data file c.save
 
     init_run     :      0.77s CPU      1.14s WALL (       1 calls)
     electrons    :     37.43s CPU     37.88s WALL (       1 calls)

     Called by init_run:
     wfcinit      :      0.50s CPU      0.52s WALL (       1 calls)
     potinit      :      0.02s CPU      0.09s WALL (       1 calls)

     Called by electrons:
     c_bands      :     36.41s CPU     36.74s WALL (      14 calls)
     sum_band     :      0.82s CPU      0.84s WALL (      14 calls)
     v_of_rho     :      0.13s CPU      0.17s WALL (      15 calls)
     mix_rho      :      0.06s CPU      0.08s WALL (      14 calls)

     Called by c_bands:
     init_us_2    :      0.01s CPU      0.02s WALL (    1856 calls)
     cegterg      :     36.18s CPU     36.49s WALL (     896 calls)

     Called by sum_band:

     Called by *egterg:
     h_psi        :      4.17s CPU      4.29s WALL (    3009 calls)
     g_psi        :      0.00s CPU      0.00s WALL (    2049 calls)
     cdiaghg      :     17.57s CPU     17.65s WALL (    2945 calls)

     Called by h_psi:
     h_psi:pot    :      4.16s CPU      4.28s WALL (    3009 calls)
     h_psi:calbec :      0.38s CPU      0.40s WALL (    3009 calls)
     vloc_psi     :      3.74s CPU      3.84s WALL (    3009 calls)
     add_vuspsi   :      0.02s CPU      0.02s WALL (    3009 calls)

     General routines
     calbec       :      0.37s CPU      0.39s WALL (    3009 calls)
     fft          :      0.30s CPU      0.50s WALL (     164 calls)
     fftw         :      4.43s CPU      4.54s WALL (   46434 calls)
 
     Parallel routines
     fft_scatter  :      4.44s CPU      4.74s WALL (   46598 calls)
 
     PWSCF        :    42.76s CPU        46.85s WALL

 
   This run was terminated on:   3:23: 7   9Jan2021            

=------------------------------------------------------------------------------=
   JOB DONE.
=------------------------------------------------------------------------------=
