
     Program PWSCF v.6.1 (svn rev. 13369) starts on 11Jan2021 at 16: 2: 3 

     This program is part of the open-source Quantum ESPRESSO suite
     for quantum simulation of materials; please cite
         "P. Giannozzi et al., J. Phys.:Condens. Matter 21 395502 (2009);
          URL http://www.quantum-espresso.org", 
     in publications or presentations arising from this work. More details at
     http://www.quantum-espresso.org/quote

     Parallel version (MPI & OpenMP), running on      40 processor cores
     Number of MPI processes:                40
     Threads/MPI process:                     1
     R & G space division:  proc/nbgrp/npool/nimage =      40
     Waiting for input...
     Reading input from standard input

     Current dimensions of program PWSCF are:
     Max number of different atomic species (ntypx) = 10
     Max number of k-points (npk) =  40000
     Max angular momentum in pseudopotentials (lmaxx) =  3

     IMPORTANT: XC functional enforced from input :
     Exchange-correlation      = PBE ( 1  4  3  4 0 0)
     Any further DFT definition will be discarded
     Please, verify this is what you really want


     Subspace diagonalization in iterative solution of the eigenvalue problem:
     one sub-group per band group will be used
     scalapack distributed-memory algorithm (size of sub-group:  4*  4 procs)

 
     Parallelization info
     --------------------
     sticks:   dense  smooth     PW     G-vecs:    dense   smooth      PW
     Min           9       9      3                  122      122      23
     Max          10      10      4                  125      125      27
     Sum         379     379    121                 4909     4909     941
 


     bravais-lattice index     =            2
     lattice parameter (alat)  =       6.7704  a.u.
     unit-cell volume          =      77.5849 (a.u.)^3
     number of atoms/cell      =            2
     number of atomic types    =            1
     number of electrons       =         8.00
     number of Kohn-Sham states=            8
     kinetic-energy cutoff     =      60.0000  Ry
     charge density cutoff     =     240.0000  Ry
     convergence threshold     =      1.0E-20
     mixing beta               =       0.7000
     number of iterations used =            8  plain     mixing
     Exchange-correlation      = PBE ( 1  4  3  4 0 0)

     celldm(1)=   6.770369  celldm(2)=   0.000000  celldm(3)=   0.000000
     celldm(4)=   0.000000  celldm(5)=   0.000000  celldm(6)=   0.000000

     crystal axes: (cart. coord. in units of alat)
               a(1) = (  -0.500000   0.000000   0.500000 )  
               a(2) = (   0.000000   0.500000   0.500000 )  
               a(3) = (  -0.500000   0.500000   0.000000 )  

     reciprocal axes: (cart. coord. in units 2 pi/alat)
               b(1) = ( -1.000000 -1.000000  1.000000 )  
               b(2) = (  1.000000  1.000000  1.000000 )  
               b(3) = ( -1.000000  1.000000 -1.000000 )  


     PseudoPot. # 1 for C  read from file:
     ../C_ONCV_PBE-1.0.upf
     MD5 check sum: 40f8c33130f0afa4272e9dcc1c4fb0df
     Pseudo is Norm-conserving, Zval =  4.0
     Generated using ONCVPSP code by D. R. Hamann
     Using radial grid of  602 points,  4 beta functions with: 
                l(1) =   0
                l(2) =   0
                l(3) =   1
                l(4) =   1

     atomic species   valence    mass     pseudopotential
        C              4.00    12.01100     C ( 1.00)

     No symmetry found



   Cartesian axes

     site n.     atom                  positions (alat units)
         1           C   tau(   1) = (   0.0000000   0.0000000   0.0000000  )
         2           C   tau(   2) = (  -0.2500000   0.2500000   0.2500000  )

     number of k points=    64
                       cart. coord. in units 2pi/alat
        k(    1) = (   0.0000000   0.0000000   0.0000000), wk =   0.0312500
        k(    2) = (  -0.2500000   0.2500000  -0.2500000), wk =   0.0312500
        k(    3) = (   0.5000000  -0.5000000   0.5000000), wk =   0.0312500
        k(    4) = (   0.2500000  -0.2500000   0.2500000), wk =   0.0312500
        k(    5) = (   0.2500000   0.2500000   0.2500000), wk =   0.0312500
        k(    6) = (   0.0000000   0.5000000   0.0000000), wk =   0.0312500
        k(    7) = (   0.7500000  -0.2500000   0.7500000), wk =   0.0312500
        k(    8) = (   0.5000000   0.0000000   0.5000000), wk =   0.0312500
        k(    9) = (  -0.5000000  -0.5000000  -0.5000000), wk =   0.0312500
        k(   10) = (  -0.7500000  -0.2500000  -0.7500000), wk =   0.0312500
        k(   11) = (   0.0000000  -1.0000000   0.0000000), wk =   0.0312500
        k(   12) = (  -0.2500000  -0.7500000  -0.2500000), wk =   0.0312500
        k(   13) = (  -0.2500000  -0.2500000  -0.2500000), wk =   0.0312500
        k(   14) = (  -0.5000000   0.0000000  -0.5000000), wk =   0.0312500
        k(   15) = (   0.2500000  -0.7500000   0.2500000), wk =   0.0312500
        k(   16) = (   0.0000000  -0.5000000   0.0000000), wk =   0.0312500
        k(   17) = (  -0.2500000  -0.2500000   0.2500000), wk =   0.0312500
        k(   18) = (  -0.5000000   0.0000000   0.0000000), wk =   0.0312500
        k(   19) = (   0.2500000  -0.7500000   0.7500000), wk =   0.0312500
        k(   20) = (   0.0000000  -0.5000000   0.5000000), wk =   0.0312500
        k(   21) = (   0.0000000   0.0000000   0.5000000), wk =   0.0312500
        k(   22) = (  -0.2500000   0.2500000   0.2500000), wk =   0.0312500
        k(   23) = (   0.5000000  -0.5000000   1.0000000), wk =   0.0312500
        k(   24) = (   0.2500000  -0.2500000   0.7500000), wk =   0.0312500
        k(   25) = (  -0.7500000  -0.7500000  -0.2500000), wk =   0.0312500
        k(   26) = (  -1.0000000  -0.5000000  -0.5000000), wk =   0.0312500
        k(   27) = (  -0.2500000  -1.2500000   0.2500000), wk =   0.0312500
        k(   28) = (  -0.5000000  -1.0000000   0.0000000), wk =   0.0312500
        k(   29) = (  -0.5000000  -0.5000000   0.0000000), wk =   0.0312500
        k(   30) = (  -0.7500000  -0.2500000  -0.2500000), wk =   0.0312500
        k(   31) = (   0.0000000  -1.0000000   0.5000000), wk =   0.0312500
        k(   32) = (  -0.2500000  -0.7500000   0.2500000), wk =   0.0312500
        k(   33) = (   0.5000000   0.5000000  -0.5000000), wk =   0.0312500
        k(   34) = (   0.2500000   0.7500000  -0.7500000), wk =   0.0312500
        k(   35) = (   1.0000000   0.0000000   0.0000000), wk =   0.0312500
        k(   36) = (   0.7500000   0.2500000  -0.2500000), wk =   0.0312500
        k(   37) = (   0.7500000   0.7500000  -0.2500000), wk =   0.0312500
        k(   38) = (   0.5000000   1.0000000  -0.5000000), wk =   0.0312500
        k(   39) = (   1.2500000   0.2500000   0.2500000), wk =   0.0312500
        k(   40) = (   1.0000000   0.5000000   0.0000000), wk =   0.0312500
        k(   41) = (   0.0000000   0.0000000  -1.0000000), wk =   0.0312500
        k(   42) = (  -0.2500000   0.2500000  -1.2500000), wk =   0.0312500
        k(   43) = (   0.5000000  -0.5000000  -0.5000000), wk =   0.0312500
        k(   44) = (   0.2500000  -0.2500000  -0.7500000), wk =   0.0312500
        k(   45) = (   0.2500000   0.2500000  -0.7500000), wk =   0.0312500
        k(   46) = (   0.0000000   0.5000000  -1.0000000), wk =   0.0312500
        k(   47) = (   0.7500000  -0.2500000  -0.2500000), wk =   0.0312500
        k(   48) = (   0.5000000   0.0000000  -0.5000000), wk =   0.0312500
        k(   49) = (   0.2500000   0.2500000  -0.2500000), wk =   0.0312500
        k(   50) = (   0.0000000   0.5000000  -0.5000000), wk =   0.0312500
        k(   51) = (   0.7500000  -0.2500000   0.2500000), wk =   0.0312500
        k(   52) = (   0.5000000   0.0000000   0.0000000), wk =   0.0312500
        k(   53) = (   0.5000000   0.5000000   0.0000000), wk =   0.0312500
        k(   54) = (   0.2500000   0.7500000  -0.2500000), wk =   0.0312500
        k(   55) = (   1.0000000   0.0000000   0.5000000), wk =   0.0312500
        k(   56) = (   0.7500000   0.2500000   0.2500000), wk =   0.0312500
        k(   57) = (  -0.2500000  -0.2500000  -0.7500000), wk =   0.0312500
        k(   58) = (  -0.5000000   0.0000000  -1.0000000), wk =   0.0312500
        k(   59) = (   0.2500000  -0.7500000  -0.2500000), wk =   0.0312500
        k(   60) = (   0.0000000  -0.5000000  -0.5000000), wk =   0.0312500
        k(   61) = (   0.0000000   0.0000000  -0.5000000), wk =   0.0312500
        k(   62) = (  -0.2500000   0.2500000  -0.7500000), wk =   0.0312500
        k(   63) = (   0.5000000  -0.5000000   0.0000000), wk =   0.0312500
        k(   64) = (   0.2500000  -0.2500000  -0.2500000), wk =   0.0312500

     Dense  grid:     4909 G-vectors     FFT dimensions: (  24,  24,  24)

     Estimated max dynamical RAM per process >       0.22MB

     Estimated total allocated dynamical RAM >       8.89MB

     Initial potential from superposition of free atoms

     starting charge    7.98607, renormalised to    8.00000
     Starting wfc are random

     total cpu time spent up to now is        1.7 secs

     per-process dynamical memory:    11.9 Mb

     Self-consistent Calculation

     iteration #  1     ecut=    60.00 Ry     beta=0.70
     Davidson diagonalization with overlap
     ethr =  1.00E-02,  avg # of iterations =  7.0

     total cpu time spent up to now is        3.3 secs

     total energy              =     -22.76616556 Ry
     Harris-Foulkes estimate   =     -22.81552875 Ry
     estimated scf accuracy    <       0.11443653 Ry

     iteration #  2     ecut=    60.00 Ry     beta=0.70
     Davidson diagonalization with overlap
     ethr =  1.43E-03,  avg # of iterations =  2.0

     total cpu time spent up to now is        3.8 secs

     total energy              =     -22.77330072 Ry
     Harris-Foulkes estimate   =     -22.77366445 Ry
     estimated scf accuracy    <       0.00260682 Ry

     iteration #  3     ecut=    60.00 Ry     beta=0.70
     Davidson diagonalization with overlap
     ethr =  3.26E-05,  avg # of iterations =  2.6

     total cpu time spent up to now is        4.5 secs

     total energy              =     -22.77372824 Ry
     Harris-Foulkes estimate   =     -22.77371577 Ry
     estimated scf accuracy    <       0.00007674 Ry

     iteration #  4     ecut=    60.00 Ry     beta=0.70
     Davidson diagonalization with overlap
     ethr =  9.59E-07,  avg # of iterations =  2.2

     total cpu time spent up to now is        5.0 secs

     total energy              =     -22.77373320 Ry
     Harris-Foulkes estimate   =     -22.77373467 Ry
     estimated scf accuracy    <       0.00000316 Ry

     iteration #  5     ecut=    60.00 Ry     beta=0.70
     Davidson diagonalization with overlap
     ethr =  3.95E-08,  avg # of iterations =  2.3

     total cpu time spent up to now is        5.6 secs

     total energy              =     -22.77373354 Ry
     Harris-Foulkes estimate   =     -22.77373356 Ry
     estimated scf accuracy    <       0.00000007 Ry

     iteration #  6     ecut=    60.00 Ry     beta=0.70
     Davidson diagonalization with overlap
     ethr =  9.36E-10,  avg # of iterations =  2.2

     total cpu time spent up to now is        6.1 secs

     total energy              =     -22.77373357 Ry
     Harris-Foulkes estimate   =     -22.77373356 Ry
     estimated scf accuracy    <          6.5E-09 Ry

     iteration #  7     ecut=    60.00 Ry     beta=0.70
     Davidson diagonalization with overlap
     ethr =  8.17E-11,  avg # of iterations =  3.0

     total cpu time spent up to now is        6.8 secs

     total energy              =     -22.77373358 Ry
     Harris-Foulkes estimate   =     -22.77373358 Ry
     estimated scf accuracy    <          1.1E-10 Ry

     iteration #  8     ecut=    60.00 Ry     beta=0.70
     Davidson diagonalization with overlap
     ethr =  1.38E-12,  avg # of iterations =  2.9

     total cpu time spent up to now is        7.5 secs

     total energy              =     -22.77373358 Ry
     Harris-Foulkes estimate   =     -22.77373358 Ry
     estimated scf accuracy    <          2.3E-13 Ry

     iteration #  9     ecut=    60.00 Ry     beta=0.70
     Davidson diagonalization with overlap
     ethr =  1.00E-13,  avg # of iterations =  1.1

     total cpu time spent up to now is        7.9 secs

     total energy              =     -22.77373358 Ry
     Harris-Foulkes estimate   =     -22.77373358 Ry
     estimated scf accuracy    <          4.1E-15 Ry

     iteration # 10     ecut=    60.00 Ry     beta=0.70
     Davidson diagonalization with overlap
     ethr =  1.00E-13,  avg # of iterations =  1.0

     total cpu time spent up to now is        8.2 secs

     total energy              =     -22.77373358 Ry
     Harris-Foulkes estimate   =     -22.77373358 Ry
     estimated scf accuracy    <          1.5E-15 Ry

     iteration # 11     ecut=    60.00 Ry     beta=0.70
     Davidson diagonalization with overlap
     ethr =  1.00E-13,  avg # of iterations =  1.0

     total cpu time spent up to now is        8.6 secs

     total energy              =     -22.77373358 Ry
     Harris-Foulkes estimate   =     -22.77373358 Ry
     estimated scf accuracy    <          4.6E-17 Ry

     iteration # 12     ecut=    60.00 Ry     beta=0.70
     Davidson diagonalization with overlap
     ethr =  1.00E-13,  avg # of iterations =  1.0

     total cpu time spent up to now is        8.9 secs

     total energy              =     -22.77373358 Ry
     Harris-Foulkes estimate   =     -22.77373358 Ry
     estimated scf accuracy    <          3.0E-18 Ry

     iteration # 13     ecut=    60.00 Ry     beta=0.70
     Davidson diagonalization with overlap
     ethr =  1.00E-13,  avg # of iterations =  1.0

     total cpu time spent up to now is        9.3 secs

     total energy              =     -22.77373358 Ry
     Harris-Foulkes estimate   =     -22.77373358 Ry
     estimated scf accuracy    <          5.5E-20 Ry

     iteration # 14     ecut=    60.00 Ry     beta=0.70
     Davidson diagonalization with overlap
     ethr =  1.00E-13,  avg # of iterations =  1.0

     total cpu time spent up to now is        9.6 secs

     total energy              =     -22.77373358 Ry
     Harris-Foulkes estimate   =     -22.77373358 Ry
     estimated scf accuracy    <          1.0E-19 Ry

     iteration # 15     ecut=    60.00 Ry     beta=0.70
     Davidson diagonalization with overlap
     ethr =  1.00E-13,  avg # of iterations =  1.0

     total cpu time spent up to now is       10.0 secs

     total energy              =     -22.77373358 Ry
     Harris-Foulkes estimate   =     -22.77373358 Ry
     estimated scf accuracy    <          3.5E-20 Ry

     iteration # 16     ecut=    60.00 Ry     beta=0.70
     Davidson diagonalization with overlap
     ethr =  1.00E-13,  avg # of iterations =  1.0

     total cpu time spent up to now is       10.3 secs

     total energy              =     -22.77373358 Ry
     Harris-Foulkes estimate   =     -22.77373358 Ry
     estimated scf accuracy    <          1.8E-19 Ry

     iteration # 17     ecut=    60.00 Ry     beta=0.70
     Davidson diagonalization with overlap
     ethr =  1.00E-13,  avg # of iterations =  1.0

     total cpu time spent up to now is       10.7 secs

     End of self-consistent calculation

          k = 0.0000 0.0000 0.0000 (   609 PWs)   bands (ev):

    -8.1651  13.1096  13.1096  13.1096  18.6726  18.6726  18.6726  26.1429

          k =-0.2500 0.2500-0.2500 (   601 PWs)   bands (ev):

    -6.4677   6.5914  11.3909  11.3909  20.8444  20.8444  21.1477  27.5248

          k = 0.5000-0.5000 0.5000 (   610 PWs)   bands (ev):

    -2.4667  -0.1077  10.3463  10.3463  21.5248  21.5248  21.8049  28.6848

          k = 0.2500-0.2500 0.2500 (   601 PWs)   bands (ev):

    -6.4677   6.5914  11.3909  11.3909  20.8444  20.8444  21.1477  27.5248

          k = 0.2500 0.2500 0.2500 (   601 PWs)   bands (ev):

    -6.4677   6.5914  11.3909  11.3909  20.8444  20.8444  21.1477  27.5248

          k = 0.0000 0.5000 0.0000 (   592 PWs)   bands (ev):

    -5.9040   8.6222   9.0487   9.0487  17.5394  23.2960  24.5800  24.5800

          k = 0.7500-0.2500 0.7500 (   608 PWs)   bands (ev):

    -2.2101   2.4318   6.4490   8.2986  19.1731  24.4577  25.7925  26.2667

          k = 0.5000 0.0000 0.5000 (   616 PWs)   bands (ev):

    -3.7456   4.4878   5.6009  10.1389  20.9899  23.0264  25.3323  26.8307

          k =-0.5000-0.5000-0.5000 (   610 PWs)   bands (ev):

    -2.4667  -0.1077  10.3463  10.3463  21.5248  21.5248  21.8049  28.6848

          k =-0.7500-0.2500-0.7500 (   608 PWs)   bands (ev):

    -2.2101   2.4318   6.4490   8.2986  19.1731  24.4577  25.7925  26.2667

          k = 0.0000-1.0000 0.0000 (   620 PWs)   bands (ev):

     0.4562   0.4562   6.8927   6.8927  17.8734  17.8734  29.6896  29.6896

          k =-0.2500-0.7500-0.2500 (   608 PWs)   bands (ev):

    -2.2101   2.4318   6.4490   8.2986  19.1731  24.4577  25.7925  26.2667

          k =-0.2500-0.2500-0.2500 (   601 PWs)   bands (ev):

    -6.4677   6.5914  11.3909  11.3909  20.8444  20.8444  21.1477  27.5248

          k =-0.5000 0.0000-0.5000 (   616 PWs)   bands (ev):

    -3.7456   4.4878   5.6009  10.1389  20.9899  23.0264  25.3323  26.8307

          k = 0.2500-0.7500 0.2500 (   608 PWs)   bands (ev):

    -2.2101   2.4318   6.4490   8.2986  19.1731  24.4577  25.7925  26.2667

          k = 0.0000-0.5000 0.0000 (   592 PWs)   bands (ev):

    -5.9040   8.6222   9.0487   9.0487  17.5394  23.2960  24.5800  24.5800

          k =-0.2500-0.2500 0.2500 (   601 PWs)   bands (ev):

    -6.4677   6.5914  11.3909  11.3909  20.8444  20.8444  21.1477  27.5248

          k =-0.5000 0.0000 0.0000 (   592 PWs)   bands (ev):

    -5.9040   8.6222   9.0487   9.0487  17.5394  23.2960  24.5800  24.5800

          k = 0.2500-0.7500 0.7500 (   608 PWs)   bands (ev):

    -2.2101   2.4318   6.4490   8.2986  19.1731  24.4577  25.7925  26.2667

          k = 0.0000-0.5000 0.5000 (   616 PWs)   bands (ev):

    -3.7456   4.4878   5.6009  10.1389  20.9899  23.0264  25.3323  26.8307

          k = 0.0000 0.0000 0.5000 (   592 PWs)   bands (ev):

    -5.9040   8.6222   9.0487   9.0487  17.5394  23.2960  24.5800  24.5800

          k =-0.2500 0.2500 0.2500 (   601 PWs)   bands (ev):

    -6.4677   6.5914  11.3909  11.3909  20.8444  20.8444  21.1477  27.5248

          k = 0.5000-0.5000 1.0000 (   616 PWs)   bands (ev):

    -3.7456   4.4878   5.6009  10.1389  20.9899  23.0264  25.3323  26.8307

          k = 0.2500-0.2500 0.7500 (   608 PWs)   bands (ev):

    -2.2101   2.4318   6.4490   8.2986  19.1731  24.4577  25.7925  26.2667

          k =-0.7500-0.7500-0.2500 (   608 PWs)   bands (ev):

    -2.2101   2.4318   6.4490   8.2986  19.1731  24.4577  25.7925  26.2667

          k =-1.0000-0.5000-0.5000 (   616 PWs)   bands (ev):

    -3.7456   4.4878   5.6009  10.1389  20.9899  23.0264  25.3323  26.8307

          k =-0.2500-1.2500 0.2500 (   608 PWs)   bands (ev):

    -2.2101   2.4318   6.4490   8.2986  19.1731  24.4577  25.7925  26.2667

          k =-0.5000-1.0000 0.0000 (   616 PWs)   bands (ev):

     1.2270   1.2270   4.9073   4.9073  23.6896  23.6896  25.2623  25.2623

          k =-0.5000-0.5000 0.0000 (   616 PWs)   bands (ev):

    -3.7456   4.4878   5.6009  10.1389  20.9899  23.0264  25.3323  26.8307

          k =-0.7500-0.2500-0.2500 (   608 PWs)   bands (ev):

    -2.2101   2.4318   6.4490   8.2986  19.1731  24.4577  25.7925  26.2667

          k = 0.0000-1.0000 0.5000 (   616 PWs)   bands (ev):

     1.2270   1.2270   4.9073   4.9073  23.6896  23.6896  25.2623  25.2623

          k =-0.2500-0.7500 0.2500 (   608 PWs)   bands (ev):

    -2.2101   2.4318   6.4490   8.2986  19.1731  24.4577  25.7925  26.2667

          k = 0.5000 0.5000-0.5000 (   610 PWs)   bands (ev):

    -2.4667  -0.1077  10.3463  10.3463  21.5248  21.5248  21.8049  28.6848

          k = 0.2500 0.7500-0.7500 (   608 PWs)   bands (ev):

    -2.2101   2.4318   6.4490   8.2986  19.1731  24.4577  25.7925  26.2667

          k = 1.0000 0.0000 0.0000 (   620 PWs)   bands (ev):

     0.4562   0.4562   6.8927   6.8927  17.8734  17.8734  29.6896  29.6896

          k = 0.7500 0.2500-0.2500 (   608 PWs)   bands (ev):

    -2.2101   2.4318   6.4490   8.2986  19.1731  24.4577  25.7925  26.2667

          k = 0.7500 0.7500-0.2500 (   608 PWs)   bands (ev):

    -2.2101   2.4318   6.4490   8.2986  19.1731  24.4577  25.7925  26.2667

          k = 0.5000 1.0000-0.5000 (   616 PWs)   bands (ev):

    -3.7456   4.4878   5.6009  10.1389  20.9899  23.0264  25.3323  26.8307

          k = 1.2500 0.2500 0.2500 (   608 PWs)   bands (ev):

    -2.2101   2.4318   6.4490   8.2986  19.1731  24.4577  25.7925  26.2667

          k = 1.0000 0.5000 0.0000 (   616 PWs)   bands (ev):

     1.2270   1.2270   4.9073   4.9073  23.6896  23.6896  25.2623  25.2623

          k = 0.0000 0.0000-1.0000 (   620 PWs)   bands (ev):

     0.4562   0.4562   6.8927   6.8927  17.8734  17.8734  29.6896  29.6896

          k =-0.2500 0.2500-1.2500 (   608 PWs)   bands (ev):

    -2.2101   2.4318   6.4490   8.2986  19.1731  24.4577  25.7925  26.2667

          k = 0.5000-0.5000-0.5000 (   610 PWs)   bands (ev):

    -2.4667  -0.1077  10.3463  10.3463  21.5248  21.5248  21.8049  28.6848

          k = 0.2500-0.2500-0.7500 (   608 PWs)   bands (ev):

    -2.2101   2.4318   6.4490   8.2986  19.1731  24.4577  25.7925  26.2667

          k = 0.2500 0.2500-0.7500 (   608 PWs)   bands (ev):

    -2.2101   2.4318   6.4490   8.2986  19.1731  24.4577  25.7925  26.2667

          k = 0.0000 0.5000-1.0000 (   616 PWs)   bands (ev):

     1.2270   1.2270   4.9073   4.9073  23.6896  23.6896  25.2623  25.2623

          k = 0.7500-0.2500-0.2500 (   608 PWs)   bands (ev):

    -2.2101   2.4318   6.4490   8.2986  19.1731  24.4577  25.7925  26.2667

          k = 0.5000 0.0000-0.5000 (   616 PWs)   bands (ev):

    -3.7456   4.4878   5.6009  10.1389  20.9899  23.0264  25.3323  26.8307

          k = 0.2500 0.2500-0.2500 (   601 PWs)   bands (ev):

    -6.4677   6.5914  11.3909  11.3909  20.8444  20.8444  21.1477  27.5248

          k = 0.0000 0.5000-0.5000 (   616 PWs)   bands (ev):

    -3.7456   4.4878   5.6009  10.1389  20.9899  23.0264  25.3323  26.8307

          k = 0.7500-0.2500 0.2500 (   608 PWs)   bands (ev):

    -2.2101   2.4318   6.4490   8.2986  19.1731  24.4577  25.7925  26.2667

          k = 0.5000 0.0000 0.0000 (   592 PWs)   bands (ev):

    -5.9040   8.6222   9.0487   9.0487  17.5394  23.2960  24.5800  24.5800

          k = 0.5000 0.5000 0.0000 (   616 PWs)   bands (ev):

    -3.7456   4.4878   5.6009  10.1389  20.9899  23.0264  25.3323  26.8307

          k = 0.2500 0.7500-0.2500 (   608 PWs)   bands (ev):

    -2.2101   2.4318   6.4490   8.2986  19.1731  24.4577  25.7925  26.2667

          k = 1.0000 0.0000 0.5000 (   616 PWs)   bands (ev):

     1.2270   1.2270   4.9073   4.9073  23.6896  23.6896  25.2623  25.2623

          k = 0.7500 0.2500 0.2500 (   608 PWs)   bands (ev):

    -2.2101   2.4318   6.4490   8.2986  19.1731  24.4577  25.7925  26.2667

          k =-0.2500-0.2500-0.7500 (   608 PWs)   bands (ev):

    -2.2101   2.4318   6.4490   8.2986  19.1731  24.4577  25.7925  26.2667

          k =-0.5000 0.0000-1.0000 (   616 PWs)   bands (ev):

     1.2270   1.2270   4.9073   4.9073  23.6896  23.6896  25.2623  25.2623

          k = 0.2500-0.7500-0.2500 (   608 PWs)   bands (ev):

    -2.2101   2.4318   6.4490   8.2986  19.1731  24.4577  25.7925  26.2667

          k = 0.0000-0.5000-0.5000 (   616 PWs)   bands (ev):

    -3.7456   4.4878   5.6009  10.1389  20.9899  23.0264  25.3323  26.8307

          k = 0.0000 0.0000-0.5000 (   592 PWs)   bands (ev):

    -5.9040   8.6222   9.0487   9.0487  17.5394  23.2960  24.5800  24.5800

          k =-0.2500 0.2500-0.7500 (   608 PWs)   bands (ev):

    -2.2101   2.4318   6.4490   8.2986  19.1731  24.4577  25.7925  26.2667

          k = 0.5000-0.5000 0.0000 (   616 PWs)   bands (ev):

    -3.7456   4.4878   5.6009  10.1389  20.9899  23.0264  25.3323  26.8307

          k = 0.2500-0.2500-0.2500 (   601 PWs)   bands (ev):

    -6.4677   6.5914  11.3909  11.3909  20.8444  20.8444  21.1477  27.5248

     highest occupied, lowest unoccupied level (ev):    13.1096   17.5394

!    total energy              =     -22.77373358 Ry
     Harris-Foulkes estimate   =     -22.77373358 Ry
     estimated scf accuracy    <          4.1E-21 Ry

     The total energy is the sum of the following terms:

     one-electron contribution =       7.82150514 Ry
     hartree contribution      =       1.96689921 Ry
     xc contribution           =      -7.10155595 Ry
     ewald contribution        =     -25.46058198 Ry

     convergence has been achieved in  17 iterations

     Writing output data file c.save
 
     init_run     :      0.38s CPU      0.99s WALL (       1 calls)
     electrons    :      8.72s CPU      8.95s WALL (       1 calls)

     Called by init_run:
     wfcinit      :      0.33s CPU      0.61s WALL (       1 calls)
     potinit      :      0.02s CPU      0.07s WALL (       1 calls)

     Called by electrons:
     c_bands      :      8.46s CPU      8.62s WALL (      17 calls)
     sum_band     :      0.23s CPU      0.25s WALL (      17 calls)
     v_of_rho     :      0.03s CPU      0.05s WALL (      18 calls)
     mix_rho      :      0.01s CPU      0.03s WALL (      17 calls)

     Called by c_bands:
     init_us_2    :      0.02s CPU      0.02s WALL (    2240 calls)
     cegterg      :      8.39s CPU      8.53s WALL (    1088 calls)

     Called by sum_band:

     Called by *egterg:
     h_psi        :      1.42s CPU      1.48s WALL (    3273 calls)
     g_psi        :      0.00s CPU      0.00s WALL (    2121 calls)
     cdiaghg      :      4.73s CPU      4.99s WALL (    3209 calls)

     Called by h_psi:
     h_psi:pot    :      1.42s CPU      1.47s WALL (    3273 calls)
     h_psi:calbec :      0.08s CPU      0.09s WALL (    3273 calls)
     vloc_psi     :      1.31s CPU      1.34s WALL (    3273 calls)
     add_vuspsi   :      0.02s CPU      0.02s WALL (    3273 calls)

     General routines
     calbec       :      0.07s CPU      0.07s WALL (    3273 calls)
     fft          :      0.02s CPU      0.17s WALL (     197 calls)
     fftw         :      1.43s CPU      1.47s WALL (   53880 calls)
 
     Parallel routines
     fft_scatter  :      1.18s CPU      1.22s WALL (   54077 calls)
 
     PWSCF        :     9.53s CPU        11.46s WALL

 
   This run was terminated on:  16: 2:15  11Jan2021            

=------------------------------------------------------------------------------=
   JOB DONE.
=------------------------------------------------------------------------------=
