  ABINIT 8.8.2
  
  Give name for formatted input file: 
diamond_gw_ppm.in
  Give name for formatted output file:
diamond_gw_ppm.out
  Give root name for generic input files:
diamond_gw_ppm_i
  Give root name for generic output files:
diamond_gw_ppm_o
  Give root name for generic temporary files:
diamond_gw_ppm
 
--- !COMMENT
src_file: isfile.F90
src_line: 109
message: |
    Output file diamond_gw_ppm.out
     already exists.
...
 
 
--- !COMMENT
src_file: isfile.F90
src_line: 133
message: |
    Renaming old diamond_gw_ppm.out to diamond_gw_ppm.out0002
...
 

.Version 8.8.2 of ABINIT 
.(MPI version, prepared for a x86_64_linux_intel16.0 computer) 

.Copyright (C) 1998-2018 ABINIT group . 
 ABINIT comes with ABSOLUTELY NO WARRANTY.
 It is free software, and you are welcome to redistribute it
 under certain conditions (GNU General Public License,
 see ~abinit/COPYING or http://www.gnu.org/copyleft/gpl.txt).

 ABINIT is a project of the Universite Catholique de Louvain,
 Corning Inc. and other collaborators, see ~abinit/doc/developers/contributors.txt .
 Please read ~abinit/doc/users/acknowledgments.html for suggested
 acknowledgments of the ABINIT effort.
 For more information, see https://www.abinit.org .

.Starting date : Mon  4 Jan 2021.
- ( at 15h54 )
  
- The starting date is more than 2 years after the initial release
- of this version of ABINIT, namely May 2018.
- Note that the use beyond 3 years after the release will not be supported.
- Action: please, switch to a more recent version of ABINIT.
 
 
 ++++++++++++++++++++++++++++++++++++++++++++++++++++++++++++++++++++++++++++++
 
 === Build Information === 
  Version       : 8.8.2
  Build target  : x86_64_linux_intel16.0
  Build date    : 20200712
 
 === Compiler Suite === 
  C compiler       : intel16.0
  C++ compiler     : gnu4.8
  Fortran compiler : intel16.0
  CFLAGS           : -O2 -g -mkl -traceback
  CXXFLAGS         :  -g -O2 -mtune=native -march=native
  FCFLAGS          :  -g -extend-source -noaltparam -nofpscomp  -qopenmp
  FC_LDFLAGS       :    -static-intel -static-libgcc
 
 === Optimizations === 
  Debug level        : basic
  Optimization level : standard
  Architecture       : intel_xeon
 
 === Multicore === 
  Parallel build : yes
  Parallel I/O   : auto
  openMP support : yes
  GPU support    : no
 
 === Connectors / Fallbacks === 
  Connectors on : yes
  Fallbacks on  : yes
  DFT flavor    : libxc-fallback
  FFT flavor    : fftw3-mkl
  LINALG flavor : mkl
  MATH flavor   : none
  TIMER flavor  : abinit
  TRIO flavor   : netcdf-fallback
 
 === Experimental features === 
  Bindings            : @enable_bindings@
  Exports             : no
  GW double-precision : no
 
 ++++++++++++++++++++++++++++++++++++++++++++++++++++++++++++++++++++++++++++++
 

 ++++++++++++++++++++++++++++++++++++++++++++++++++++++++++++++++++++++++++++++
 Default optimizations:
   -O3


 Optimizations for 20_datashare:
   -O0


 ++++++++++++++++++++++++++++++++++++++++++++++++++++++++++++++++++++++++++++++


 ++++++++++++++++++++++++++++++++++++++++++++++++++++++++++++++++++++++++++++++
 CPP options activated during the build:

                  CC_INTEL                   CXX_GNU                  FC_INTEL
 
 HAVE_FC_ALLOCATABLE_DT...             HAVE_FC_ASYNC  HAVE_FC_COMMAND_ARGUMENT
 
      HAVE_FC_COMMAND_LINE        HAVE_FC_CONTIGUOUS           HAVE_FC_CPUTIME
 
              HAVE_FC_EXIT             HAVE_FC_FLUSH             HAVE_FC_GAMMA
 
   HAVE_FC_IEEE_EXCEPTIONS             HAVE_FC_IOMSG     HAVE_FC_ISO_C_BINDING
 
  HAVE_FC_ISO_FORTRAN_2008        HAVE_FC_LONG_LINES        HAVE_FC_MOVE_ALLOC
 
           HAVE_FC_PRIVATE         HAVE_FC_PROTECTED         HAVE_FC_STREAM_IO
 
                  HAVE_FFT        HAVE_FFT_FFTW3_MKL              HAVE_FFT_MPI
 
           HAVE_FFT_SERIAL        HAVE_LIBPAW_ABINIT      HAVE_LIBTETRA_ABINIT
 
                HAVE_LIBXC               HAVE_LINALG        HAVE_LINALG_SERIAL
 
                  HAVE_MPI                 HAVE_MPI2       HAVE_MPI_IALLREDUCE
 
        HAVE_MPI_IALLTOALL       HAVE_MPI_IALLTOALLV        HAVE_MPI_INTEGER16
 
               HAVE_MPI_IO HAVE_MPI_TYPE_CREATE_S...               HAVE_NETCDF
 
         HAVE_OMP_COLLAPSE               HAVE_OPENMP             HAVE_OS_LINUX
 
         HAVE_TIMER_ABINIT              USE_MACROAVE                            
 ++++++++++++++++++++++++++++++++++++++++++++++++++++++++++++++++++++++++++++++

- input  file    -> diamond_gw_ppm.in
- output file    -> diamond_gw_ppm.out
- root for input  files -> diamond_gw_ppm_i
- root for output files -> diamond_gw_ppm_o
 
-instrng: 105 lines of input have been read from file diamond_gw_ppm.in
 

 Please give name of formatted atomic psp file
 iofn2 : for atom type 1, psp file is ../C.pz-mt.fhi
  read the values zionpsp=  4.0 , pspcod=   6 , lmax=   2
 
 inpspheads: deduce mpsang = 3, n1xccc = 0.
 invars1 : treat image number: 1
 
 symlatt : the Bravais lattice is cF (face-centered cubic)
  xred   is defined in input file
 ingeo : takes atomic coordinates from input array xred
 symfind : exit, nsym=48
   symrel matrices, symafm and tnons are :
   1       1   0   0     0   1   0     0   0   1       1      0.0000  0.0000  0.0000
   2      -1   0   0     0  -1   0     0   0  -1       1      0.2500  0.2500  0.2500
   3       0  -1   1     0  -1   0     1  -1   0       1      0.0000  0.0000  0.0000
   4       0   1  -1     0   1   0    -1   1   0       1      0.2500  0.2500  0.2500
   5      -1   0   0    -1   0   1    -1   1   0       1      0.0000  0.0000  0.0000
   6       1   0   0     1   0  -1     1  -1   0       1      0.2500  0.2500  0.2500
   7       0   1  -1     1   0  -1     0   0  -1       1      0.0000  0.0000  0.0000
   8       0  -1   1    -1   0   1     0   0   1       1      0.2500  0.2500  0.2500
   9      -1   0   0    -1   1   0    -1   0   1       1      0.0000  0.0000  0.0000
  10       1   0   0     1  -1   0     1   0  -1       1      0.2500  0.2500  0.2500
  11       0  -1   1     1  -1   0     0  -1   0       1      0.0000  0.0000  0.0000
  12       0   1  -1    -1   1   0     0   1   0       1      0.2500  0.2500  0.2500
  13       1   0   0     0   0   1     0   1   0       1      0.0000  0.0000  0.0000
  14      -1   0   0     0   0  -1     0  -1   0       1      0.2500  0.2500  0.2500
  15       0   1  -1     0   0  -1     1   0  -1       1      0.0000  0.0000  0.0000
  16       0  -1   1     0   0   1    -1   0   1       1      0.2500  0.2500  0.2500
  17      -1   0   1    -1   1   0    -1   0   0       1      0.0000  0.0000  0.0000
  18       1   0  -1     1  -1   0     1   0   0       1      0.2500  0.2500  0.2500
  19       0  -1   0     1  -1   0     0  -1   1       1      0.0000  0.0000  0.0000
  20       0   1   0    -1   1   0     0   1  -1       1      0.2500  0.2500  0.2500
  21       1   0  -1     0   0  -1     0   1  -1       1      0.0000  0.0000  0.0000
  22      -1   0   1     0   0   1     0  -1   1       1      0.2500  0.2500  0.2500
  23       0   1   0     0   0   1     1   0   0       1      0.0000  0.0000  0.0000
  24       0  -1   0     0   0  -1    -1   0   0       1      0.2500  0.2500  0.2500
  25       1   0  -1     0   1  -1     0   0  -1       1      0.0000  0.0000  0.0000
  26      -1   0   1     0  -1   1     0   0   1       1      0.2500  0.2500  0.2500
  27       0  -1   0     0  -1   1     1  -1   0       1      0.0000  0.0000  0.0000
  28       0   1   0     0   1  -1    -1   1   0       1      0.2500  0.2500  0.2500
  29      -1   0   1    -1   0   0    -1   1   0       1      0.0000  0.0000  0.0000
  30       1   0  -1     1   0   0     1  -1   0       1      0.2500  0.2500  0.2500
  31       0   1   0     1   0   0     0   0   1       1      0.0000  0.0000  0.0000
  32       0  -1   0    -1   0   0     0   0  -1       1      0.2500  0.2500  0.2500
  33       0   0  -1     0   1  -1     1   0  -1       1      0.0000  0.0000  0.0000
  34       0   0   1     0  -1   1    -1   0   1       1      0.2500  0.2500  0.2500
  35       1  -1   0     0  -1   1     0  -1   0       1      0.0000  0.0000  0.0000
  36      -1   1   0     0   1  -1     0   1   0       1      0.2500  0.2500  0.2500
  37       0   0   1     1   0   0     0   1   0       1      0.0000  0.0000  0.0000
  38       0   0  -1    -1   0   0     0  -1   0       1      0.2500  0.2500  0.2500
  39      -1   1   0    -1   0   0    -1   0   1       1      0.0000  0.0000  0.0000
  40       1  -1   0     1   0   0     1   0  -1       1      0.2500  0.2500  0.2500
  41       0   0   1     0   1   0     1   0   0       1      0.0000  0.0000  0.0000
  42       0   0  -1     0  -1   0    -1   0   0       1      0.2500  0.2500  0.2500
  43       1  -1   0     0  -1   0     0  -1   1       1      0.0000  0.0000  0.0000
  44      -1   1   0     0   1   0     0   1  -1       1      0.2500  0.2500  0.2500
  45       0   0  -1     1   0  -1     0   1  -1       1      0.0000  0.0000  0.0000
  46       0   0   1    -1   0   1     0  -1   1       1      0.2500  0.2500  0.2500
  47      -1   1   0    -1   0   1    -1   0   0       1      0.0000  0.0000  0.0000
  48       1  -1   0     1   0  -1     1   0   0       1      0.2500  0.2500  0.2500
 
 symlatt : the Bravais lattice is cF (face-centered cubic)
 
 symlatt : the Bravais lattice is cF (face-centered cubic)
 symspgr : spgroup= 227  Fd -3 m   (=Oh^7)
 symspgr : optical characteristics = isotropic
 ingeo : angdeg(1:3)=   60.00000000   60.00000000   60.00000000
 invars1 : treat image number: 1
 
 symlatt : the Bravais lattice is cF (face-centered cubic)
  xred   is defined in input file
 ingeo : takes atomic coordinates from input array xred
 symfind : exit, nsym=48
   symrel matrices, symafm and tnons are :
   1       1   0   0     0   1   0     0   0   1       1      0.0000  0.0000  0.0000
   2      -1   0   0     0  -1   0     0   0  -1       1      0.2500  0.2500  0.2500
   3       0  -1   1     0  -1   0     1  -1   0       1      0.0000  0.0000  0.0000
   4       0   1  -1     0   1   0    -1   1   0       1      0.2500  0.2500  0.2500
   5      -1   0   0    -1   0   1    -1   1   0       1      0.0000  0.0000  0.0000
   6       1   0   0     1   0  -1     1  -1   0       1      0.2500  0.2500  0.2500
   7       0   1  -1     1   0  -1     0   0  -1       1      0.0000  0.0000  0.0000
   8       0  -1   1    -1   0   1     0   0   1       1      0.2500  0.2500  0.2500
   9      -1   0   0    -1   1   0    -1   0   1       1      0.0000  0.0000  0.0000
  10       1   0   0     1  -1   0     1   0  -1       1      0.2500  0.2500  0.2500
  11       0  -1   1     1  -1   0     0  -1   0       1      0.0000  0.0000  0.0000
  12       0   1  -1    -1   1   0     0   1   0       1      0.2500  0.2500  0.2500
  13       1   0   0     0   0   1     0   1   0       1      0.0000  0.0000  0.0000
  14      -1   0   0     0   0  -1     0  -1   0       1      0.2500  0.2500  0.2500
  15       0   1  -1     0   0  -1     1   0  -1       1      0.0000  0.0000  0.0000
  16       0  -1   1     0   0   1    -1   0   1       1      0.2500  0.2500  0.2500
  17      -1   0   1    -1   1   0    -1   0   0       1      0.0000  0.0000  0.0000
  18       1   0  -1     1  -1   0     1   0   0       1      0.2500  0.2500  0.2500
  19       0  -1   0     1  -1   0     0  -1   1       1      0.0000  0.0000  0.0000
  20       0   1   0    -1   1   0     0   1  -1       1      0.2500  0.2500  0.2500
  21       1   0  -1     0   0  -1     0   1  -1       1      0.0000  0.0000  0.0000
  22      -1   0   1     0   0   1     0  -1   1       1      0.2500  0.2500  0.2500
  23       0   1   0     0   0   1     1   0   0       1      0.0000  0.0000  0.0000
  24       0  -1   0     0   0  -1    -1   0   0       1      0.2500  0.2500  0.2500
  25       1   0  -1     0   1  -1     0   0  -1       1      0.0000  0.0000  0.0000
  26      -1   0   1     0  -1   1     0   0   1       1      0.2500  0.2500  0.2500
  27       0  -1   0     0  -1   1     1  -1   0       1      0.0000  0.0000  0.0000
  28       0   1   0     0   1  -1    -1   1   0       1      0.2500  0.2500  0.2500
  29      -1   0   1    -1   0   0    -1   1   0       1      0.0000  0.0000  0.0000
  30       1   0  -1     1   0   0     1  -1   0       1      0.2500  0.2500  0.2500
  31       0   1   0     1   0   0     0   0   1       1      0.0000  0.0000  0.0000
  32       0  -1   0    -1   0   0     0   0  -1       1      0.2500  0.2500  0.2500
  33       0   0  -1     0   1  -1     1   0  -1       1      0.0000  0.0000  0.0000
  34       0   0   1     0  -1   1    -1   0   1       1      0.2500  0.2500  0.2500
  35       1  -1   0     0  -1   1     0  -1   0       1      0.0000  0.0000  0.0000
  36      -1   1   0     0   1  -1     0   1   0       1      0.2500  0.2500  0.2500
  37       0   0   1     1   0   0     0   1   0       1      0.0000  0.0000  0.0000
  38       0   0  -1    -1   0   0     0  -1   0       1      0.2500  0.2500  0.2500
  39      -1   1   0    -1   0   0    -1   0   1       1      0.0000  0.0000  0.0000
  40       1  -1   0     1   0   0     1   0  -1       1      0.2500  0.2500  0.2500
  41       0   0   1     0   1   0     1   0   0       1      0.0000  0.0000  0.0000
  42       0   0  -1     0  -1   0    -1   0   0       1      0.2500  0.2500  0.2500
  43       1  -1   0     0  -1   0     0  -1   1       1      0.0000  0.0000  0.0000
  44      -1   1   0     0   1   0     0   1  -1       1      0.2500  0.2500  0.2500
  45       0   0  -1     1   0  -1     0   1  -1       1      0.0000  0.0000  0.0000
  46       0   0   1    -1   0   1     0  -1   1       1      0.2500  0.2500  0.2500
  47      -1   1   0    -1   0   1    -1   0   0       1      0.0000  0.0000  0.0000
  48       1  -1   0     1   0  -1     1   0   0       1      0.2500  0.2500  0.2500
 
 symlatt : the Bravais lattice is cF (face-centered cubic)
 
 symlatt : the Bravais lattice is cF (face-centered cubic)
 symspgr : spgroup= 227  Fd -3 m   (=Oh^7)
 symspgr : optical characteristics = isotropic
 ingeo : angdeg(1:3)=   60.00000000   60.00000000   60.00000000
 invars1 : treat image number: 1
 
 symlatt : the Bravais lattice is cF (face-centered cubic)
  xred   is defined in input file
 ingeo : takes atomic coordinates from input array xred
 symfind : exit, nsym=48
   symrel matrices, symafm and tnons are :
   1       1   0   0     0   1   0     0   0   1       1      0.0000  0.0000  0.0000
   2      -1   0   0     0  -1   0     0   0  -1       1      0.2500  0.2500  0.2500
   3       0  -1   1     0  -1   0     1  -1   0       1      0.0000  0.0000  0.0000
   4       0   1  -1     0   1   0    -1   1   0       1      0.2500  0.2500  0.2500
   5      -1   0   0    -1   0   1    -1   1   0       1      0.0000  0.0000  0.0000
   6       1   0   0     1   0  -1     1  -1   0       1      0.2500  0.2500  0.2500
   7       0   1  -1     1   0  -1     0   0  -1       1      0.0000  0.0000  0.0000
   8       0  -1   1    -1   0   1     0   0   1       1      0.2500  0.2500  0.2500
   9      -1   0   0    -1   1   0    -1   0   1       1      0.0000  0.0000  0.0000
  10       1   0   0     1  -1   0     1   0  -1       1      0.2500  0.2500  0.2500
  11       0  -1   1     1  -1   0     0  -1   0       1      0.0000  0.0000  0.0000
  12       0   1  -1    -1   1   0     0   1   0       1      0.2500  0.2500  0.2500
  13       1   0   0     0   0   1     0   1   0       1      0.0000  0.0000  0.0000
  14      -1   0   0     0   0  -1     0  -1   0       1      0.2500  0.2500  0.2500
  15       0   1  -1     0   0  -1     1   0  -1       1      0.0000  0.0000  0.0000
  16       0  -1   1     0   0   1    -1   0   1       1      0.2500  0.2500  0.2500
  17      -1   0   1    -1   1   0    -1   0   0       1      0.0000  0.0000  0.0000
  18       1   0  -1     1  -1   0     1   0   0       1      0.2500  0.2500  0.2500
  19       0  -1   0     1  -1   0     0  -1   1       1      0.0000  0.0000  0.0000
  20       0   1   0    -1   1   0     0   1  -1       1      0.2500  0.2500  0.2500
  21       1   0  -1     0   0  -1     0   1  -1       1      0.0000  0.0000  0.0000
  22      -1   0   1     0   0   1     0  -1   1       1      0.2500  0.2500  0.2500
  23       0   1   0     0   0   1     1   0   0       1      0.0000  0.0000  0.0000
  24       0  -1   0     0   0  -1    -1   0   0       1      0.2500  0.2500  0.2500
  25       1   0  -1     0   1  -1     0   0  -1       1      0.0000  0.0000  0.0000
  26      -1   0   1     0  -1   1     0   0   1       1      0.2500  0.2500  0.2500
  27       0  -1   0     0  -1   1     1  -1   0       1      0.0000  0.0000  0.0000
  28       0   1   0     0   1  -1    -1   1   0       1      0.2500  0.2500  0.2500
  29      -1   0   1    -1   0   0    -1   1   0       1      0.0000  0.0000  0.0000
  30       1   0  -1     1   0   0     1  -1   0       1      0.2500  0.2500  0.2500
  31       0   1   0     1   0   0     0   0   1       1      0.0000  0.0000  0.0000
  32       0  -1   0    -1   0   0     0   0  -1       1      0.2500  0.2500  0.2500
  33       0   0  -1     0   1  -1     1   0  -1       1      0.0000  0.0000  0.0000
  34       0   0   1     0  -1   1    -1   0   1       1      0.2500  0.2500  0.2500
  35       1  -1   0     0  -1   1     0  -1   0       1      0.0000  0.0000  0.0000
  36      -1   1   0     0   1  -1     0   1   0       1      0.2500  0.2500  0.2500
  37       0   0   1     1   0   0     0   1   0       1      0.0000  0.0000  0.0000
  38       0   0  -1    -1   0   0     0  -1   0       1      0.2500  0.2500  0.2500
  39      -1   1   0    -1   0   0    -1   0   1       1      0.0000  0.0000  0.0000
  40       1  -1   0     1   0   0     1   0  -1       1      0.2500  0.2500  0.2500
  41       0   0   1     0   1   0     1   0   0       1      0.0000  0.0000  0.0000
  42       0   0  -1     0  -1   0    -1   0   0       1      0.2500  0.2500  0.2500
  43       1  -1   0     0  -1   0     0  -1   1       1      0.0000  0.0000  0.0000
  44      -1   1   0     0   1   0     0   1  -1       1      0.2500  0.2500  0.2500
  45       0   0  -1     1   0  -1     0   1  -1       1      0.0000  0.0000  0.0000
  46       0   0   1    -1   0   1     0  -1   1       1      0.2500  0.2500  0.2500
  47      -1   1   0    -1   0   1    -1   0   0       1      0.0000  0.0000  0.0000
  48       1  -1   0     1   0  -1     1   0   0       1      0.2500  0.2500  0.2500
 
 symlatt : the Bravais lattice is cF (face-centered cubic)
 
 symlatt : the Bravais lattice is cF (face-centered cubic)
 symspgr : spgroup= 227  Fd -3 m   (=Oh^7)
 symspgr : optical characteristics = isotropic
 ingeo : angdeg(1:3)=   60.00000000   60.00000000   60.00000000
 chkneu : initialized the occupation numbers for occopt=    1, spin-unpolarized or antiferromagnetic case :
  2.00  2.00  2.00  2.00  0.00  0.00  0.00  0.00  0.00  0.00  0.00  0.00
  0.00  0.00  0.00  0.00  0.00  0.00  0.00  0.00  0.00  0.00  0.00  0.00
  0.00  0.00  0.00  0.00  0.00  0.00  0.00  0.00  0.00  0.00  0.00  0.00
  0.00  0.00  0.00  0.00  0.00  0.00  0.00  0.00  0.00  0.00  0.00  0.00
  0.00  0.00  0.00  0.00  0.00  0.00  0.00  0.00  0.00  0.00  0.00  0.00
  0.00  0.00  0.00  0.00  0.00  0.00  0.00  0.00  0.00  0.00  0.00  0.00
  0.00  0.00  0.00  0.00  0.00  0.00  0.00  0.00  0.00  0.00  0.00  0.00
  0.00  0.00  0.00  0.00  0.00  0.00  0.00  0.00  0.00  0.00  0.00  0.00
  0.00  0.00  0.00  0.00  0.00  0.00  0.00  0.00  0.00
 chkneu : initialized the occupation numbers for occopt=    1, spin-unpolarized or antiferromagnetic case :
  2.00  2.00  2.00  2.00  0.00  0.00  0.00  0.00  0.00  0.00  0.00  0.00
  0.00  0.00  0.00  0.00  0.00  0.00  0.00  0.00  0.00  0.00  0.00  0.00
  0.00  0.00  0.00  0.00  0.00  0.00  0.00  0.00  0.00  0.00  0.00  0.00
  0.00  0.00  0.00  0.00  0.00  0.00  0.00  0.00  0.00  0.00  0.00  0.00
  0.00  0.00  0.00  0.00  0.00  0.00  0.00  0.00  0.00  0.00  0.00  0.00
  0.00  0.00  0.00  0.00  0.00  0.00  0.00  0.00  0.00  0.00  0.00  0.00
  0.00  0.00  0.00  0.00  0.00  0.00  0.00  0.00  0.00  0.00  0.00  0.00
  0.00  0.00  0.00  0.00  0.00  0.00  0.00  0.00  0.00  0.00  0.00  0.00
  0.00  0.00  0.00  0.00
 
--- !WARNING
src_file: m_gsphere.F90
src_line: 2024
message: |
    The value ecutwfn=  0.300000E+02 given in the input file leads to
    the same values for nshwfn and npwwfn as ecutwfn=  0.298707E+02
    This value will be adopted for the calculation.
 
...
 
 
--- !WARNING
src_file: m_gsphere.F90
src_line: 2024
message: |
    The value ecuteps=  0.750000E+01 given in the input file leads to
    the same values for nsheps and npweps as ecuteps=  0.702839E+01
    This value will be adopted for the calculation.
 
...
 
 
--- !COMMENT
src_file: m_gsphere.F90
src_line: 1907
message: |
    One of the three variables ecutsigx, npwsigx, or nshsigx
    must be non-null. Returning.
...
 
 chkneu : initialized the occupation numbers for occopt=    1, spin-unpolarized or antiferromagnetic case :
  2.00  2.00  2.00  2.00  0.00  0.00  0.00  0.00  0.00  0.00  0.00  0.00
  0.00  0.00  0.00  0.00  0.00  0.00  0.00  0.00  0.00  0.00  0.00  0.00
  0.00  0.00  0.00  0.00  0.00  0.00  0.00  0.00  0.00  0.00  0.00  0.00
  0.00  0.00  0.00  0.00  0.00  0.00  0.00  0.00  0.00  0.00  0.00  0.00
  0.00  0.00  0.00  0.00  0.00  0.00  0.00  0.00  0.00  0.00  0.00  0.00
  0.00  0.00  0.00  0.00  0.00  0.00  0.00  0.00  0.00  0.00  0.00  0.00
  0.00  0.00  0.00  0.00  0.00  0.00  0.00  0.00  0.00  0.00  0.00  0.00
  0.00  0.00  0.00  0.00  0.00  0.00  0.00  0.00  0.00  0.00  0.00  0.00
  0.00  0.00  0.00  0.00
 
--- !WARNING
src_file: m_gsphere.F90
src_line: 2024
message: |
    The value ecutwfn=  0.300000E+02 given in the input file leads to
    the same values for nshwfn and npwwfn as ecutwfn=  0.298707E+02
    This value will be adopted for the calculation.
 
...
 
 
--- !WARNING
src_file: m_gsphere.F90
src_line: 2024
message: |
    The value ecuteps=  0.750000E+01 given in the input file leads to
    the same values for nsheps and npweps as ecuteps=  0.702839E+01
    This value will be adopted for the calculation.
 
...
 
 
--- !WARNING
src_file: m_gsphere.F90
src_line: 2024
message: |
    The value ecutsigx=  0.300000E+02 given in the input file leads to
    the same values for nshsigx and npwsigx as ecutsigx=  0.298707E+02
    This value will be adopted for the calculation.
 
...
 
npfft, npband, npspinor and npkpt:     1    1    1   40
 
--- !WARNING
src_file: distrb2.F90
src_line: 107
message: |
    nproc_kpt=40 >= nkpt=8* nsppol=1
    The number of processors is larger than nkpt*nsppol. This is a waste.
...
 
mpi_setup: mkmem  undefined in the input file.Use default mkmem  = nkpt
 mpi_setup: With nkpt_me=1 and mkmem  = 8, ground state wf handled in core.
 Resetting mkmem  to nkpt_me to save memory space.
mpi_setup: mkqmem undefined in the input file.Use default mkqmem = nkpt
 mpi_setup: With nkpt_me=1 and mkqmem = 8, ground state wf handled in core.
 Resetting mkqmem to nkpt_me to save memory space.
mpi_setup: mk1mem undefined in the input file.Use default mk1mem = nkpt
 mpi_setup: With nkpt_me=1 and mk1mem = 8, ground state wf handled in core.
 Resetting mk1mem to nkpt_me to save memory space.
 
--- !WARNING
src_file: mpi_setup.F90
src_line: 672
message: |
    Your number of spins*k-points (=8) will not distribute correctly
    with the current number of processors (=40).
    You will leave some empty.
    YOU ARE STRONGLY ADVICED TO ACTIVATE AUTOMATIC PARALLELIZATION!
    PUT "AUTOPARAL=1" IN THE INPUT FILE.
...
 
 For input ecut=  3.000000E+01 best grid ngfft=      24      24      24
       max ecut=  3.162778E+01
 
 ==== FFT mesh ====
  FFT mesh divisions ........................    24   24   24
  Augmented FFT divisions ...................    25   25   24
  FFT algorithm .............................   112
  FFT cache size ............................    16
 getmpw: optimal value of mpw= 609
npfft, npband, npspinor and npkpt:     1    1    1   40
 
--- !WARNING
src_file: distrb2.F90
src_line: 107
message: |
    nproc_kpt=40 >= nkpt=8* nsppol=1
    The number of processors is larger than nkpt*nsppol. This is a waste.
...
 
mpi_setup: mkmem  undefined in the input file.Use default mkmem  = nkpt
 mpi_setup: With nkpt_me=1 and mkmem  = 8, ground state wf handled in core.
 Resetting mkmem  to nkpt_me to save memory space.
mpi_setup: mkqmem undefined in the input file.Use default mkqmem = nkpt
 mpi_setup: With nkpt_me=1 and mkqmem = 8, ground state wf handled in core.
 Resetting mkqmem to nkpt_me to save memory space.
mpi_setup: mk1mem undefined in the input file.Use default mk1mem = nkpt
 mpi_setup: With nkpt_me=1 and mk1mem = 8, ground state wf handled in core.
 Resetting mk1mem to nkpt_me to save memory space.
 For input ecut=  2.987068E+01 best grid ngfft=      24      24      24
       max ecut=  3.162778E+01
 
 ==== FFT mesh ====
  FFT mesh divisions ........................    24   24   24
  Augmented FFT divisions ...................    25   25   24
  FFT algorithm .............................   112
  FFT cache size ............................    16
 getmpw: optimal value of mpw= 604
npfft, npband, npspinor and npkpt:     1    1    1   40
 
--- !WARNING
src_file: distrb2.F90
src_line: 107
message: |
    nproc_kpt=40 >= nkpt=8* nsppol=1
    The number of processors is larger than nkpt*nsppol. This is a waste.
...
 
mpi_setup: mkmem  undefined in the input file.Use default mkmem  = nkpt
 mpi_setup: With nkpt_me=1 and mkmem  = 8, ground state wf handled in core.
 Resetting mkmem  to nkpt_me to save memory space.
mpi_setup: mkqmem undefined in the input file.Use default mkqmem = nkpt
 mpi_setup: With nkpt_me=1 and mkqmem = 8, ground state wf handled in core.
 Resetting mkqmem to nkpt_me to save memory space.
mpi_setup: mk1mem undefined in the input file.Use default mk1mem = nkpt
 mpi_setup: With nkpt_me=1 and mk1mem = 8, ground state wf handled in core.
 Resetting mk1mem to nkpt_me to save memory space.
 For input ecut=  2.987068E+01 best grid ngfft=      24      24      24
       max ecut=  3.162778E+01
 
 ==== FFT mesh ====
  FFT mesh divisions ........................    24   24   24
  Augmented FFT divisions ...................    25   25   24
  FFT algorithm .............................   112
  FFT cache size ............................    16
 getmpw: optimal value of mpw= 604
 
 DATASET    1 : space group Fd -3 m (#227); Bravais cF (face-center cubic)
 
 getdim_nloc : deduce lmnmax  =   9, lnmax  =   3,
                      lmnmaxso=   9, lnmaxso=   3.
memory : analysis of memory needs
================================================================================
 Values of the parameters that define the memory need for DATASET  1.
     intxc =       0    ionmov =       0      iscf =      12    lmnmax =       3
     lnmax =       3     mgfft =      24  mpssoang =       3    mqgrid =    3001
     natom =       2  nloc_mem =       1    nspden =       1   nspinor =       1
    nsppol =       1      nsym =      48    n1xccc =       0    ntypat =       1
    occopt =       1   xclevel =       1
-    mband =         105        mffmem =           1         mkmem =           1
       mpw =         609          nfft =       13824          nkpt =           8
================================================================================
P This job should need less than                       4.648 Mbytes of memory.
  Rough estimation (10% accuracy) of disk space for files :
_ WF disk file :      7.808 Mbytes ; DEN or POT disk file :      0.107 Mbytes.
================================================================================
 
 Biggest array : cg(disk), with      0.9777 MBytes.
 memana : allocated an array of      0.978 Mbytes, for testing purposes.
 memana: allocated       4.648Mbytes, for testing purposes. 
 The job will continue.
 
 DATASET    2 : space group Fd -3 m (#227); Bravais cF (face-center cubic)
 
 getdim_nloc : deduce lmnmax  =   9, lnmax  =   3,
                      lmnmaxso=   9, lnmaxso=   3.
memory : analysis of memory needs
================================================================================
 Values of the parameters that define the memory need for DATASET  2.
     intxc =       0    ionmov =       0      iscf =       7    lmnmax =       3
     lnmax =       3     mgfft =      24  mpssoang =       3    mqgrid =    3001
     natom =       2  nloc_mem =       1    nspden =       1   nspinor =       1
    nsppol =       1      nsym =      48    n1xccc =       0    ntypat =       1
    occopt =       1   xclevel =       1
-    mband =         100        mffmem =           1         mkmem =           1
       mpw =         604          nfft =       13824          nkpt =           8
================================================================================
P This job should need less than                       5.617 Mbytes of memory.
  Rough estimation (10% accuracy) of disk space for files :
_ WF disk file :      7.375 Mbytes ; DEN or POT disk file :      0.107 Mbytes.
================================================================================
 
 Biggest array : f_fftgr(disk), with      1.6895 MBytes.
 
 DATASET    3 : space group Fd -3 m (#227); Bravais cF (face-center cubic)
 
 getdim_nloc : deduce lmnmax  =   9, lnmax  =   3,
                      lmnmaxso=   9, lnmaxso=   3.
memory : analysis of memory needs
================================================================================
 Values of the parameters that define the memory need for DATASET  3.
     intxc =       0    ionmov =       0      iscf =       7    lmnmax =       3
     lnmax =       3     mgfft =      24  mpssoang =       3    mqgrid =    3001
     natom =       2  nloc_mem =       1    nspden =       1   nspinor =       1
    nsppol =       1      nsym =      48    n1xccc =       0    ntypat =       1
    occopt =       1   xclevel =       1
-    mband =         100        mffmem =           1         mkmem =           1
       mpw =         604          nfft =       13824          nkpt =           8
================================================================================
P This job should need less than                       5.617 Mbytes of memory.
  Rough estimation (10% accuracy) of disk space for files :
_ WF disk file :      7.375 Mbytes ; DEN or POT disk file :      0.107 Mbytes.
================================================================================
 
 Biggest array : f_fftgr(disk), with      1.6895 MBytes.
  outvars : multivals%nkpthf =           0
  outvars : dtsets(1:ndtset_alloc)%nkpthf =          64          64          64
--------------------------------------------------------------------------------
------------- Echo of variables that govern the present computation ------------
--------------------------------------------------------------------------------
-
- outvars: echo of selected default values                                      
-   iomode0 =  0 , fftalg0 =112 , wfoptalg0 =  0
-
- outvars: echo of global parameters not present in the input file              
-  max_nthreads =    1
-
 -outvars: echo values of preprocessed input variables --------
 
 These variables are accessible in NetCDF format (diamond_gw_ppm_o_OUT.nc)

  outvars : multivals%nkpthf =           0
  outvars : dtsets(1:ndtset_alloc)%nkpthf =          64          64          64
            acell      6.7034255112E+00  6.7034255112E+00  6.7034255112E+00 Bohr
              amu      1.20110000E+01
           diemac      6.00000000E+00
             ecut1     3.00000000E+01 Hartree
             ecut2     2.98706778E+01 Hartree
             ecut3     2.98706778E+01 Hartree
          ecuteps1     0.00000000E+00 Hartree
          ecuteps2     7.02839479E+00 Hartree
          ecuteps3     7.02839479E+00 Hartree
         ecutsigx1     0.00000000E+00 Hartree
         ecutsigx2     0.00000000E+00 Hartree
         ecutsigx3     2.98706778E+01 Hartree
          ecutwfn1     0.00000000E+00 Hartree
          ecutwfn2     2.98706778E+01 Hartree
          ecutwfn3     2.98706778E+01 Hartree
-          fftalg         112
           getscr1          0
           getscr2          0
           getscr3         -1
           getwfk1          0
           getwfk2         -1
           getwfk3         -2
       gw_qprange1          0
       gw_qprange2          0
       gw_qprange3         -4
         icutcoul           7
             iscf1         12
             iscf2          7
             iscf3          7
           istwfk        1    0    1    0    0    0    1    0
              ixc           2
           jdtset        1    2    3
              kpt      0.00000000E+00  0.00000000E+00  0.00000000E+00
                       2.50000000E-01  0.00000000E+00  0.00000000E+00
                       5.00000000E-01  0.00000000E+00  0.00000000E+00
                       2.50000000E-01  2.50000000E-01  0.00000000E+00
                       5.00000000E-01  2.50000000E-01  0.00000000E+00
                      -2.50000000E-01  2.50000000E-01  0.00000000E+00
                       5.00000000E-01  5.00000000E-01  0.00000000E+00
                      -2.50000000E-01  5.00000000E-01  2.50000000E-01
         kptrlatt        4    0    0      0    4    0      0    0    4
          kptrlen      1.89601505E+01
P           mkmem           1
            natom           2
            nband1        105
            nband2        100
            nband3        100
           nbdbuf1          5
           nbdbuf2          0
           nbdbuf3          0
           ndtset           3
            ngfft          24      24      24
             nkpt           8
           npweps1          0
           npweps2         65
           npweps3         65
          npwsigx1          0
          npwsigx2          0
          npwsigx3        609
           npwwfn1          0
           npwwfn2        609
           npwwfn3        609
            nstep         200
             nsym          48
           ntypat           1
              occ1     2.000000  2.000000  2.000000  2.000000  0.000000  0.000000
                       0.000000  0.000000  0.000000  0.000000  0.000000  0.000000
                       0.000000  0.000000  0.000000  0.000000  0.000000  0.000000
                       0.000000  0.000000  0.000000  0.000000  0.000000  0.000000
                       0.000000  0.000000  0.000000  0.000000  0.000000  0.000000
                       0.000000  0.000000  0.000000  0.000000  0.000000  0.000000
                       0.000000  0.000000  0.000000  0.000000  0.000000  0.000000
                       0.000000  0.000000  0.000000  0.000000  0.000000  0.000000
                       0.000000  0.000000  0.000000  0.000000  0.000000  0.000000
                       0.000000  0.000000  0.000000  0.000000  0.000000  0.000000
                       0.000000  0.000000  0.000000  0.000000  0.000000  0.000000
                       0.000000  0.000000  0.000000  0.000000  0.000000  0.000000
                       0.000000  0.000000  0.000000  0.000000  0.000000  0.000000
                       0.000000  0.000000  0.000000  0.000000  0.000000  0.000000
                       0.000000  0.000000  0.000000  0.000000  0.000000  0.000000
                       0.000000  0.000000  0.000000  0.000000  0.000000  0.000000
                       0.000000  0.000000  0.000000  0.000000  0.000000  0.000000
                       0.000000  0.000000  0.000000
              occ2     2.000000  2.000000  2.000000  2.000000  0.000000  0.000000
                       0.000000  0.000000  0.000000  0.000000  0.000000  0.000000
                       0.000000  0.000000  0.000000  0.000000  0.000000  0.000000
                       0.000000  0.000000  0.000000  0.000000  0.000000  0.000000
                       0.000000  0.000000  0.000000  0.000000  0.000000  0.000000
                       0.000000  0.000000  0.000000  0.000000  0.000000  0.000000
                       0.000000  0.000000  0.000000  0.000000  0.000000  0.000000
                       0.000000  0.000000  0.000000  0.000000  0.000000  0.000000
                       0.000000  0.000000  0.000000  0.000000  0.000000  0.000000
                       0.000000  0.000000  0.000000  0.000000  0.000000  0.000000
                       0.000000  0.000000  0.000000  0.000000  0.000000  0.000000
                       0.000000  0.000000  0.000000  0.000000  0.000000  0.000000
                       0.000000  0.000000  0.000000  0.000000  0.000000  0.000000
                       0.000000  0.000000  0.000000  0.000000  0.000000  0.000000
                       0.000000  0.000000  0.000000  0.000000  0.000000  0.000000
                       0.000000  0.000000  0.000000  0.000000  0.000000  0.000000
                       0.000000  0.000000  0.000000  0.000000
              occ3     2.000000  2.000000  2.000000  2.000000  0.000000  0.000000
                       0.000000  0.000000  0.000000  0.000000  0.000000  0.000000
                       0.000000  0.000000  0.000000  0.000000  0.000000  0.000000
                       0.000000  0.000000  0.000000  0.000000  0.000000  0.000000
                       0.000000  0.000000  0.000000  0.000000  0.000000  0.000000
                       0.000000  0.000000  0.000000  0.000000  0.000000  0.000000
                       0.000000  0.000000  0.000000  0.000000  0.000000  0.000000
                       0.000000  0.000000  0.000000  0.000000  0.000000  0.000000
                       0.000000  0.000000  0.000000  0.000000  0.000000  0.000000
                       0.000000  0.000000  0.000000  0.000000  0.000000  0.000000
                       0.000000  0.000000  0.000000  0.000000  0.000000  0.000000
                       0.000000  0.000000  0.000000  0.000000  0.000000  0.000000
                       0.000000  0.000000  0.000000  0.000000  0.000000  0.000000
                       0.000000  0.000000  0.000000  0.000000  0.000000  0.000000
                       0.000000  0.000000  0.000000  0.000000  0.000000  0.000000
                       0.000000  0.000000  0.000000  0.000000  0.000000  0.000000
                       0.000000  0.000000  0.000000  0.000000
        optdriver1          0
        optdriver2          3
        optdriver3          4
           ppmfrq1     0.00000000E+00 Hartree
           ppmfrq2     5.00000000E-01 Hartree
           ppmfrq3     5.00000000E-01 Hartree
          ppmodel1          1
          ppmodel2          2
          ppmodel3          2
            rprim      0.0000000000E+00  5.0000000000E-01  5.0000000000E-01
                       5.0000000000E-01  0.0000000000E+00  5.0000000000E-01
                       5.0000000000E-01  5.0000000000E-01  0.0000000000E+00
          spgroup         227
           symrel      1  0  0   0  1  0   0  0  1      -1  0  0   0 -1  0   0  0 -1
                       0 -1  1   0 -1  0   1 -1  0       0  1 -1   0  1  0  -1  1  0
                      -1  0  0  -1  0  1  -1  1  0       1  0  0   1  0 -1   1 -1  0
                       0  1 -1   1  0 -1   0  0 -1       0 -1  1  -1  0  1   0  0  1
                      -1  0  0  -1  1  0  -1  0  1       1  0  0   1 -1  0   1  0 -1
                       0 -1  1   1 -1  0   0 -1  0       0  1 -1  -1  1  0   0  1  0
                       1  0  0   0  0  1   0  1  0      -1  0  0   0  0 -1   0 -1  0
                       0  1 -1   0  0 -1   1  0 -1       0 -1  1   0  0  1  -1  0  1
                      -1  0  1  -1  1  0  -1  0  0       1  0 -1   1 -1  0   1  0  0
                       0 -1  0   1 -1  0   0 -1  1       0  1  0  -1  1  0   0  1 -1
                       1  0 -1   0  0 -1   0  1 -1      -1  0  1   0  0  1   0 -1  1
                       0  1  0   0  0  1   1  0  0       0 -1  0   0  0 -1  -1  0  0
                       1  0 -1   0  1 -1   0  0 -1      -1  0  1   0 -1  1   0  0  1
                       0 -1  0   0 -1  1   1 -1  0       0  1  0   0  1 -1  -1  1  0
                      -1  0  1  -1  0  0  -1  1  0       1  0 -1   1  0  0   1 -1  0
                       0  1  0   1  0  0   0  0  1       0 -1  0  -1  0  0   0  0 -1
                       0  0 -1   0  1 -1   1  0 -1       0  0  1   0 -1  1  -1  0  1
                       1 -1  0   0 -1  1   0 -1  0      -1  1  0   0  1 -1   0  1  0
                       0  0  1   1  0  0   0  1  0       0  0 -1  -1  0  0   0 -1  0
                      -1  1  0  -1  0  0  -1  0  1       1 -1  0   1  0  0   1  0 -1
                       0  0  1   0  1  0   1  0  0       0  0 -1   0 -1  0  -1  0  0
                       1 -1  0   0 -1  0   0 -1  1      -1  1  0   0  1  0   0  1 -1
                       0  0 -1   1  0 -1   0  1 -1       0  0  1  -1  0  1   0 -1  1
                      -1  1  0  -1  0  1  -1  0  0       1 -1  0   1  0 -1   1  0  0
            tnons      0.0000000  0.0000000  0.0000000     0.2500000  0.2500000  0.2500000
                       0.0000000  0.0000000  0.0000000     0.2500000  0.2500000  0.2500000
                       0.0000000  0.0000000  0.0000000     0.2500000  0.2500000  0.2500000
                       0.0000000  0.0000000  0.0000000     0.2500000  0.2500000  0.2500000
                       0.0000000  0.0000000  0.0000000     0.2500000  0.2500000  0.2500000
                       0.0000000  0.0000000  0.0000000     0.2500000  0.2500000  0.2500000
                       0.0000000  0.0000000  0.0000000     0.2500000  0.2500000  0.2500000
                       0.0000000  0.0000000  0.0000000     0.2500000  0.2500000  0.2500000
                       0.0000000  0.0000000  0.0000000     0.2500000  0.2500000  0.2500000
                       0.0000000  0.0000000  0.0000000     0.2500000  0.2500000  0.2500000
                       0.0000000  0.0000000  0.0000000     0.2500000  0.2500000  0.2500000
                       0.0000000  0.0000000  0.0000000     0.2500000  0.2500000  0.2500000
                       0.0000000  0.0000000  0.0000000     0.2500000  0.2500000  0.2500000
                       0.0000000  0.0000000  0.0000000     0.2500000  0.2500000  0.2500000
                       0.0000000  0.0000000  0.0000000     0.2500000  0.2500000  0.2500000
                       0.0000000  0.0000000  0.0000000     0.2500000  0.2500000  0.2500000
                       0.0000000  0.0000000  0.0000000     0.2500000  0.2500000  0.2500000
                       0.0000000  0.0000000  0.0000000     0.2500000  0.2500000  0.2500000
                       0.0000000  0.0000000  0.0000000     0.2500000  0.2500000  0.2500000
                       0.0000000  0.0000000  0.0000000     0.2500000  0.2500000  0.2500000
                       0.0000000  0.0000000  0.0000000     0.2500000  0.2500000  0.2500000
                       0.0000000  0.0000000  0.0000000     0.2500000  0.2500000  0.2500000
                       0.0000000  0.0000000  0.0000000     0.2500000  0.2500000  0.2500000
                       0.0000000  0.0000000  0.0000000     0.2500000  0.2500000  0.2500000
           tolvrs1     1.00000000E-20
           tolvrs2     0.00000000E+00
           tolvrs3     0.00000000E+00
            typat      1  1
       usepotzero1          2
       usepotzero2          0
       usepotzero3          0
              wtk        0.01563    0.12500    0.06250    0.09375    0.37500    0.18750
                         0.04688    0.09375
           xangst      0.0000000000E+00  0.0000000000E+00  0.0000000000E+00
                       8.8682500000E-01  8.8682500000E-01  8.8682500000E-01
            xcart      0.0000000000E+00  0.0000000000E+00  0.0000000000E+00
                       1.6758563778E+00  1.6758563778E+00  1.6758563778E+00
             xred      0.0000000000E+00  0.0000000000E+00  0.0000000000E+00
                       2.5000000000E-01  2.5000000000E-01  2.5000000000E-01
            znucl        6.00000
 
================================================================================
 
 chkinp: Checking input parameters for consistency, jdtset=   1.
 
 chkinp: Checking input parameters for consistency, jdtset=   2.
 
 chkinp: Checking input parameters for consistency, jdtset=   3.
 DATA TYPE INFORMATION: 
 REAL:      Data type name: REAL(DP) 
            Kind value:      8
            Precision:      15
            Smallest nonnegligible quantity relative to 1:  0.22204460E-15
            Smallest positive number:                       0.22250739-307
            Largest representable number:                   0.17976931+309
 INTEGER:   Data type name: INTEGER(default) 
            Kind value: 4
            Bit size:   32
            Largest representable number: 2147483647
 LOGICAL:   Data type name: LOGICAL 
            Kind value: 4
 CHARACTER: Data type name: CHARACTER             Kind value: 1

  ==== OpenMP parallelism is ON ====
- Max_threads:       1
- Num_threads:       1
- Num_procs:         1
- Dynamic:           F
- Nested:            F
 
  ==== Using MPI-2 specifications ==== 
  MPI-IO support is ON
  xmpi_tag_ub ................   2147483647
  xmpi_bsize_ch ..............            1
  xmpi_bsize_int .............            4
  xmpi_bsize_sp ..............            4
  xmpi_bsize_dp ..............            8
  xmpi_bsize_spc .............            8
  xmpi_bsize_dpc .............           16
  xmpio_bsize_frm ............            4
  xmpi_address_kind ..........            8
  xmpi_offset_kind ...........            8
  MPI_WTICK ..................   1.000000000000000E-006
 
================================================================================
== DATASET  1 ==================================================================
-   nproc =   40   -> not optimal: autoparal keyword recommended in input file
 
 
--- !COMMENT
src_file: m_xgScalapack.F90
src_line: 220
message: |
    xgScalapack in auto mode
...
 
 
 getdim_nloc : deduce lmnmax  =   9, lnmax  =   3,
                      lmnmaxso=   9, lnmaxso=   3.
 Exchange-correlation functional for the present dataset will be:
  LDA: Perdew-Zunger-Ceperley-Alder - ixc=2
 Citation for XC functional:
  J.P.Perdew and A.Zunger, PRB 23, 5048 (1981)
 
 Unit cell volume ucvol=  7.5306137E+01 bohr^3
 Angles (23,13,12)=  6.00000000E+01  6.00000000E+01  6.00000000E+01 degrees
 
 getcut: wavevector=  0.0000  0.0000  0.0000  ngfft=  24  24  24
         ecut(hartree)=     30.000   => boxcut(ratio)=   2.05354
 kpgio: loop on k-points done in parallel
- pspini: atom type   1  psp file is ../C.pz-mt.fhi
- pspatm: opening atomic psp file    ../C.pz-mt.fhi
- Carbon, fhi98PP: Troullier-Martins type, LDA CA Perdew/Zunger 1980, generated by Han Yang
-  6.00000   4.00000    200323                znucl, zion, pspdat
    6    2    2    2       461   0.00000      pspcod,pspxc,lmax,lloc,mmax,r2well
    0.00000000000000    0.00000000000000    0.00000000000000   rchrg,fchrg,qchrg
  1.024700          amesh (Hamman grid)
  pspatm : epsatm=    2.67376634
         --- l  ekb(1:nproj) -->
             0    3.126556
             1   -1.684041
 pspatm: atomic psp has been read  and splines computed
 
   4.27802615E+01                                ecore*ucvol(ha*bohr**3)
 ==== Info on pseudopotentials ====
  Norm-conserving pseudopotentials
  Number of pseudopotentials ..    1
  Number of types of atoms   ..    1
  Scalar calculation (no spin-orbit term)
  Nonlocal part applied using Legendre polynomials
  Max number of non-local projectors over l and type   1
  Highest angular momentum +1 .......   3
  Max number of (l,n)   components ..   3
  Max number of (l,m,n) components ..   3
 
 Info on the Q-grid used for form factors in spline form: 
   Number of q-points for radial functions ffspl ..   3001
   Number of q-points for vlspl ...................   3001
   vloc is computed in Reciprocal Space
   model core charge treated in real-space
 
  XC functional for type 1 is 2
  Pseudo valence available: no
 
 wfconv:   105 bands initialized randomly with npw=   609, for ikpt=     1
_setup2: Arith. and geom. avg. npw (full set) are     593.953     593.920
 initro: for itypat=  1, take decay length=      0.7000,
 initro: indeed, coreel=      2.0000, nval=  4 and densty=  0.0000E+00.
 
================================================================================
 
 getcut: wavevector=  0.0000  0.0000  0.0000  ngfft=  24  24  24
         ecut(hartree)=     30.000   => boxcut(ratio)=   2.05354
 
--- !WARNING
src_file: m_ewald.F90
src_line: 149
message: |
    Very large box of G neighbors in ewald: you probably do not want to do this.
     If you have a metal consider setting dipdip 0.  ng =         30
...
 
 
 ITER STEP NUMBER     1
 vtorho : nnsclo_now=2, note that nnsclo,dbl_nnsclo,istep=0 0 1
 Total charge density [el/Bohr^3]
      Maximum=    3.1342E-01  at reduced coord.    0.0417    0.0833    0.8333
      Minimum=    1.1460E-02  at reduced coord.    0.5000    0.5000    0.5000
   Integrated=    8.0000E+00
 ETOT  1  -12.035028835838    -1.204E+01 8.240E-02 1.020E+01
 scprqt: <Vxc>= -5.0858726E-01 hartree
 
Simple mixing update:
  residual square of the potential :   8.04277048952403
  rhotov : is_hybrid_ncpp= F
  rhotov : n3xccc=           0
 scfcv: previous iteration took 00 [s]
 
 ITER STEP NUMBER     2
 vtorho : nnsclo_now=2, note that nnsclo,dbl_nnsclo,istep=0 0 2
 Total charge density [el/Bohr^3]
      Maximum=    2.9598E-01  at reduced coord.    0.0833    0.0833    0.7917
      Minimum=    1.4059E-02  at reduced coord.    0.5000    0.5000    0.5000
   Integrated=    8.0000E+00
 ETOT  2  -11.439513983533     5.955E-01 2.078E-03 7.806E-02
 scprqt: <Vxc>= -4.9743988E-01 hartree
 
Simple mixing update:
  residual square of the potential :  6.455184776730497E-002
  rhotov : is_hybrid_ncpp= F
  rhotov : n3xccc=           0
 scfcv: previous iteration took 00 [s]
 
 ITER STEP NUMBER     3
 vtorho : nnsclo_now=1, note that nnsclo,dbl_nnsclo,istep=0 0 3
 Total charge density [el/Bohr^3]
      Maximum=    2.9720E-01  at reduced coord.    0.0417    0.0833    0.8333
      Minimum=    1.3851E-02  at reduced coord.    0.5000    0.5000    0.5000
   Integrated=    8.0000E+00
 ETOT  3  -11.439415839645     9.814E-05 1.588E-03 3.924E-04
 scprqt: <Vxc>= -4.9749769E-01 hartree
 
Simple mixing update:
  residual square of the potential :  2.636527869841450E-004
  rhotov : is_hybrid_ncpp= F
  rhotov : n3xccc=           0
 scfcv: previous iteration took 00 [s]
 
 ITER STEP NUMBER     4
 vtorho : nnsclo_now=1, note that nnsclo,dbl_nnsclo,istep=0 0 4
 Total charge density [el/Bohr^3]
      Maximum=    2.9705E-01  at reduced coord.    0.0417    0.0833    0.8333
      Minimum=    1.3866E-02  at reduced coord.    0.5000    0.5000    0.5000
   Integrated=    8.0000E+00
 ETOT  4  -11.439414238182     1.601E-06 4.269E-04 8.701E-06
 scprqt: <Vxc>= -4.9735769E-01 hartree
 
Simple mixing update:
  residual square of the potential :  7.312605644165267E-006
  rhotov : is_hybrid_ncpp= F
  rhotov : n3xccc=           0
 scfcv: previous iteration took 00 [s]
 
 ITER STEP NUMBER     5
 vtorho : nnsclo_now=1, note that nnsclo,dbl_nnsclo,istep=0 0 5
 Total charge density [el/Bohr^3]
      Maximum=    2.9706E-01  at reduced coord.    0.0417    0.0833    0.8333
      Minimum=    1.3864E-02  at reduced coord.    0.5000    0.5000    0.5000
   Integrated=    8.0000E+00
 ETOT  5  -11.439414243394    -5.212E-09 4.406E-04 5.193E-08
 scprqt: <Vxc>= -4.9735350E-01 hartree
 
Simple mixing update:
  residual square of the potential :  3.555719238658355E-008
  rhotov : is_hybrid_ncpp= F
  rhotov : n3xccc=           0
 scfcv: previous iteration took 00 [s]
 
 ITER STEP NUMBER     6
 vtorho : nnsclo_now=1, note that nnsclo,dbl_nnsclo,istep=0 0 6
 Total charge density [el/Bohr^3]
      Maximum=    2.9706E-01  at reduced coord.    0.0417    0.0833    0.8333
      Minimum=    1.3864E-02  at reduced coord.    0.5000    0.5000    0.5000
   Integrated=    8.0000E+00
 ETOT  6  -11.439414243372     2.250E-11 1.543E-04 1.432E-09
 scprqt: <Vxc>= -4.9735168E-01 hartree
 
Simple mixing update:
  residual square of the potential :  1.202766460715094E-009
  rhotov : is_hybrid_ncpp= F
  rhotov : n3xccc=           0
 scfcv: previous iteration took 00 [s]
 
 ITER STEP NUMBER     7
 vtorho : nnsclo_now=1, note that nnsclo,dbl_nnsclo,istep=0 0 7
 Total charge density [el/Bohr^3]
      Maximum=    2.9706E-01  at reduced coord.    0.0417    0.0833    0.8333
      Minimum=    1.3864E-02  at reduced coord.    0.5000    0.5000    0.5000
   Integrated=    8.0000E+00
 ETOT  7  -11.439414243375    -3.407E-12 1.424E-04 1.299E-11
 scprqt: <Vxc>= -4.9735156E-01 hartree
 
Simple mixing update:
  residual square of the potential :  9.627059477790057E-012
  rhotov : is_hybrid_ncpp= F
  rhotov : n3xccc=           0
 scfcv: previous iteration took 00 [s]
 
 ITER STEP NUMBER     8
 vtorho : nnsclo_now=1, note that nnsclo,dbl_nnsclo,istep=0 0 8
 Total charge density [el/Bohr^3]
      Maximum=    2.9706E-01  at reduced coord.    0.0417    0.0833    0.8333
      Minimum=    1.3864E-02  at reduced coord.    0.5000    0.5000    0.5000
   Integrated=    8.0000E+00
 ETOT  8  -11.439414243375    -5.862E-14 4.399E-05 3.193E-13
 scprqt: <Vxc>= -4.9735154E-01 hartree
 
Simple mixing update:
  residual square of the potential :  2.644237127826649E-013
  rhotov : is_hybrid_ncpp= F
  rhotov : n3xccc=           0
 scfcv: previous iteration took 00 [s]
 
 ITER STEP NUMBER     9
 vtorho : nnsclo_now=1, note that nnsclo,dbl_nnsclo,istep=0 0 9
 Total charge density [el/Bohr^3]
      Maximum=    2.9706E-01  at reduced coord.    0.0417    0.0833    0.8333
      Minimum=    1.3864E-02  at reduced coord.    0.5000    0.5000    0.5000
   Integrated=    8.0000E+00
 ETOT  9  -11.439414243375    -1.421E-14 3.926E-05 3.983E-15
 scprqt: <Vxc>= -4.9735153E-01 hartree
 
Simple mixing update:
  residual square of the potential :  3.085424469616673E-015
  rhotov : is_hybrid_ncpp= F
  rhotov : n3xccc=           0
 scfcv: previous iteration took 00 [s]
 
 ITER STEP NUMBER    10
 vtorho : nnsclo_now=1, note that nnsclo,dbl_nnsclo,istep=0 0 10
 Total charge density [el/Bohr^3]
      Maximum=    2.9706E-01  at reduced coord.    0.0417    0.0833    0.8333
      Minimum=    1.3864E-02  at reduced coord.    0.5000    0.5000    0.5000
   Integrated=    8.0000E+00
 ETOT 10  -11.439414243375    -1.155E-13 1.131E-05 8.392E-17
 scprqt: <Vxc>= -4.9735153E-01 hartree
 
Simple mixing update:
  residual square of the potential :  6.856680014662704E-017
  rhotov : is_hybrid_ncpp= F
  rhotov : n3xccc=           0
 scfcv: previous iteration took 00 [s]
 
 ITER STEP NUMBER    11
 vtorho : nnsclo_now=1, note that nnsclo,dbl_nnsclo,istep=0 0 11
 Total charge density [el/Bohr^3]
      Maximum=    2.9706E-01  at reduced coord.    0.0417    0.0833    0.8333
      Minimum=    1.3864E-02  at reduced coord.    0.5000    0.5000    0.5000
   Integrated=    8.0000E+00
 ETOT 11  -11.439414243375     3.197E-14 1.007E-05 1.238E-18
 scprqt: <Vxc>= -4.9735153E-01 hartree
 
Simple mixing update:
  residual square of the potential :  9.777499544978475E-019
  rhotov : is_hybrid_ncpp= F
  rhotov : n3xccc=           0
 scfcv: previous iteration took 00 [s]
 
 ITER STEP NUMBER    12
 vtorho : nnsclo_now=1, note that nnsclo,dbl_nnsclo,istep=0 0 12
 Total charge density [el/Bohr^3]
      Maximum=    2.9706E-01  at reduced coord.    0.0417    0.0833    0.8333
      Minimum=    1.3864E-02  at reduced coord.    0.5000    0.5000    0.5000
   Integrated=    8.0000E+00
 ETOT 12  -11.439414243375     2.842E-14 3.499E-06 2.369E-20
 scprqt: <Vxc>= -4.9735153E-01 hartree
 
Simple mixing update:
  residual square of the potential :  1.919248553953134E-020
  rhotov : is_hybrid_ncpp= F
  rhotov : n3xccc=           0
 scfcv: previous iteration took 00 [s]
 
 ITER STEP NUMBER    13
 vtorho : nnsclo_now=1, note that nnsclo,dbl_nnsclo,istep=0 0 13
 cgwf: converged with tan2th=     -3.1043E-17
 Total charge density [el/Bohr^3]
      Maximum=    2.9706E-01  at reduced coord.    0.0417    0.0833    0.8333
      Minimum=    1.3864E-02  at reduced coord.    0.5000    0.5000    0.5000
   Integrated=    8.0000E+00
 ETOT 13  -11.439414243375     1.030E-13 2.498E-06 3.791E-22
 scprqt: <Vxc>= -4.9735153E-01 hartree
 
 At SCF step   13       nres2   =  3.79E-22 < tolvrs=  1.00E-20 =>converged.
 
 Cartesian components of stress tensor (hartree/bohr^3)
  sigma(1 1)=  3.38468311E-04  sigma(3 2)=  0.00000000E+00
  sigma(2 2)=  3.38468311E-04  sigma(3 1)=  0.00000000E+00
  sigma(3 3)=  3.38468311E-04  sigma(2 1)=  0.00000000E+00
 
 fftdatar_write: About to write data to: diamond_gw_ppm_o_DS1_DEN with iomode IO_MODE_FORTRAN
 IO operation completed. cpu_time:       0.0 [s], walltime:       0.0 [s]
================================================================================
 
 ----iterations are completed or convergence reached----
 
 
 === Gap info ===
  >>>> For spin  1
   Minimum optical gap =   5.5963 [eV], located at k-point      :   0.0000  0.0000  0.0000
   Fundamental gap     =   4.4839 [eV], Top of valence bands at :   0.0000  0.0000  0.0000
                                        Bottom of conduction at :   0.2500  0.2500  0.0000
 Mean square residual over all n,k,spin=   5.7195E-07; max=  1.9084E-04
   0.0000  0.0000  0.0000    1  1.90840E-04 kpt; spin; max resid(k); each band:
  2.31E-24 3.08E-25 3.07E-25 3.07E-25 4.45E-25 4.46E-25 4.45E-25 2.36E-24
  9.83E-24 5.62E-25 5.63E-25 2.37E-24 2.37E-24 2.37E-24 1.77E-23 1.02E-24
  1.02E-24 1.02E-24 6.17E-25 6.16E-25 6.16E-25 4.90E-25 4.90E-25 5.94E-25
  5.95E-25 5.94E-25 5.46E-25 5.44E-25 5.46E-25 1.31E-23 1.53E-24 1.43E-24
  1.45E-24 5.14E-25 5.13E-25 7.13E-25 7.56E-25 7.44E-25 2.09E-25 2.09E-25
  7.60E-25 7.59E-25 7.58E-25 7.69E-24 2.81E-25 2.83E-25 2.78E-25 5.92E-25
  5.91E-25 5.91E-25 1.16E-23 1.30E-24 9.59E-25 1.02E-24 3.59E-24 3.60E-24
  3.60E-24 4.59E-24 1.26E-23 1.60E-24 1.68E-24 1.49E-24 4.87E-25 4.87E-25
  5.39E-24 3.07E-25 3.06E-25 3.07E-25 1.13E-24 1.08E-24 1.09E-24 8.07E-25
  4.68E-26 4.70E-26 9.36E-26 9.46E-26 9.43E-26 4.00E-25 4.26E-25 4.06E-25
  5.43E-24 2.01E-24 2.01E-24 2.01E-24 2.86E-25 2.83E-25 2.81E-25 7.74E-25
  6.34E-25 3.10E-16 1.71E-16 2.32E-16 3.28E-16 2.01E-16 3.29E-10 1.34E-10
  5.83E-07 2.50E-06 7.24E-10 1.20E-06 1.27E-05 4.09E-09 3.35E-05 1.91E-04
  6.43E-09
   0.2500  0.0000  0.0000    1  6.48508E-05 kpt; spin; max resid(k); each band:
  2.17E-24 1.13E-24 3.46E-25 3.48E-25 4.98E-25 4.98E-25 1.74E-24 3.65E-24
  8.78E-24 1.47E-24 1.47E-24 8.30E-24 1.12E-24 1.12E-24 9.70E-25 9.72E-25
  6.83E-24 8.26E-24 6.12E-25 6.12E-25 3.59E-24 7.34E-25 7.34E-25 6.00E-25
  6.00E-25 5.70E-25 6.87E-25 1.26E-23 1.08E-24 1.08E-24 6.24E-24 6.38E-25
  6.35E-25 8.93E-25 8.92E-25 3.89E-25 1.78E-24 1.41E-24 1.41E-24 2.95E-24
  1.08E-24 1.08E-24 5.42E-24 2.21E-24 2.21E-24 5.49E-24 7.99E-25 8.00E-25
  5.60E-24 1.07E-24 1.06E-24 5.66E-24 2.22E-25 1.67E-24 1.68E-24 7.96E-24
  8.36E-25 8.36E-25 1.67E-24 1.67E-24 2.30E-24 2.88E-24 2.95E-25 2.95E-25
  3.29E-24 7.83E-25 7.86E-25 2.74E-24 1.09E-24 1.09E-24 7.77E-24 7.94E-25
  7.96E-25 2.91E-25 5.76E-25 5.78E-25 8.83E-25 8.84E-25 7.08E-25 2.21E-24
  5.74E-25 5.71E-25 1.16E-25 1.21E-24 1.21E-24 4.04E-24 7.31E-25 7.29E-25
  4.12E-24 3.39E-25 1.87E-24 1.95E-24 1.95E-24 6.29E-25 6.41E-25 1.51E-25
  3.08E-23 2.05E-23 1.05E-17 4.70E-14 2.29E-14 1.02E-08 2.00E-07 4.68E-07
  6.49E-05
   0.5000  0.0000  0.0000    1  5.06835E-05 kpt; spin; max resid(k); each band:
  9.10E-25 2.74E-24 4.11E-25 4.11E-25 7.27E-25 7.28E-25 2.13E-24 6.49E-24
  7.71E-24 6.03E-24 1.13E-24 1.13E-24 1.18E-24 1.18E-24 4.80E-24 3.04E-25
  3.02E-25 2.53E-24 8.06E-25 8.05E-25 9.88E-25 9.91E-25 7.56E-24 1.17E-23
  1.10E-24 1.11E-24 9.37E-25 9.35E-25 5.73E-25 1.17E-23 8.87E-25 6.06E-25
  6.07E-25 1.63E-25 2.12E-24 2.13E-24 8.02E-25 1.30E-24 1.30E-24 6.73E-24
  1.70E-24 1.57E-24 3.62E-25 3.63E-25 5.43E-25 5.41E-25 4.27E-25 4.28E-25
  2.34E-24 2.34E-24 1.06E-23 3.81E-24 2.06E-24 1.21E-24 1.21E-24 5.70E-25
  5.69E-25 1.98E-24 1.98E-24 2.41E-24 3.54E-25 3.53E-25 1.58E-25 3.21E-25
  4.15E-24 1.14E-23 1.96E-24 1.95E-24 1.08E-24 1.08E-24 4.51E-24 2.89E-24
  5.86E-25 5.86E-25 3.99E-25 3.99E-25 3.52E-25 3.52E-25 5.22E-25 5.23E-25
  2.99E-25 7.42E-26 3.58E-25 3.58E-25 2.44E-24 4.54E-24 2.18E-24 7.19E-25
  7.19E-25 2.94E-25 1.07E-22 1.08E-22 4.52E-21 5.32E-16 5.25E-16 6.63E-16
  1.07E-11 1.34E-10 4.54E-11 1.11E-09 1.61E-08 9.51E-08 3.36E-06 1.51E-05
  5.07E-05
   0.2500  0.2500  0.0000    1  1.91658E-05 kpt; spin; max resid(k); each band:
  2.03E-24 3.60E-25 5.92E-25 5.92E-25 2.80E-24 5.11E-24 4.04E-25 4.03E-25
  1.71E-24 7.92E-24 5.38E-25 2.17E-24 2.18E-24 1.22E-23 1.11E-24 1.12E-24
  9.92E-25 6.47E-24 5.29E-25 5.35E-25 5.35E-25 1.18E-24 9.43E-25 9.43E-25
  9.55E-24 5.16E-25 4.90E-25 5.57E-25 5.57E-25 6.57E-24 7.41E-25 8.81E-25
  8.82E-25 2.13E-24 4.20E-25 4.31E-25 1.67E-24 1.67E-24 3.05E-25 3.05E-24
  3.05E-24 1.20E-23 3.30E-24 1.37E-24 1.37E-24 1.17E-24 9.08E-24 4.29E-25
  5.83E-25 5.84E-25 1.51E-24 4.14E-25 1.83E-24 2.54E-24 1.30E-24 1.30E-24
  1.67E-24 4.65E-25 4.65E-25 6.01E-24 1.19E-24 1.19E-24 2.05E-24 8.58E-25
  8.58E-25 6.85E-26 4.24E-24 3.54E-25 2.28E-24 2.27E-24 3.20E-24 5.34E-24
  1.99E-25 6.55E-25 6.53E-25 4.95E-26 9.50E-25 9.48E-25 5.54E-25 6.53E-25
  1.89E-24 1.88E-24 4.56E-25 5.61E-24 9.41E-25 9.44E-25 3.64E-24 7.72E-25
  1.52E-24 2.03E-24 2.03E-24 3.07E-24 8.26E-25 3.59E-25 1.44E-24 1.44E-24
  9.29E-24 3.50E-20 4.18E-20 5.02E-20 1.87E-18 2.91E-16 4.42E-12 4.21E-11
  1.92E-05
   0.5000  0.2500  0.0000    1  7.48653E-09 kpt; spin; max resid(k); each band:
  1.40E-24 1.45E-24 1.23E-24 6.14E-25 4.04E-24 3.95E-24 4.41E-25 1.19E-24
  5.20E-24 4.05E-24 1.39E-24 5.00E-24 9.03E-25 4.57E-24 1.85E-24 9.98E-25
  3.49E-24 6.01E-25 5.38E-24 3.72E-24 4.04E-24 9.56E-25 2.31E-24 5.73E-25
  4.94E-24 9.03E-25 3.84E-24 7.33E-24 1.60E-24 8.92E-25 3.73E-24 1.47E-24
  4.06E-24 1.82E-24 1.91E-24 5.45E-25 1.27E-24 5.70E-24 2.94E-24 1.86E-24
  1.01E-24 2.41E-24 2.47E-24 1.51E-24 1.86E-24 5.50E-25 2.20E-24 6.00E-24
  5.22E-25 4.12E-25 1.56E-24 6.58E-25 2.86E-24 7.72E-25 1.43E-24 3.09E-24
  1.07E-24 5.02E-24 1.37E-24 1.26E-24 2.04E-24 7.61E-25 8.80E-25 4.30E-24
  3.92E-25 1.69E-24 1.91E-24 1.01E-24 3.28E-24 3.15E-24 6.81E-25 3.43E-24
  3.28E-24 7.40E-25 3.00E-24 1.80E-24 5.35E-25 4.30E-25 2.43E-25 4.08E-25
  1.53E-24 2.35E-24 2.34E-24 1.48E-24 1.33E-24 2.55E-24 6.60E-25 3.89E-24
  3.47E-25 3.02E-24 1.73E-24 1.02E-24 2.41E-24 8.94E-25 4.83E-24 4.93E-23
  4.69E-24 4.62E-22 9.08E-20 8.26E-20 3.40E-15 4.80E-14 3.27E-13 7.39E-15
  7.49E-09
  -0.2500  0.2500  0.0000    1  4.47801E-07 kpt; spin; max resid(k); each band:
  1.65E-24 8.83E-25 1.69E-24 4.68E-25 3.02E-24 4.37E-25 1.96E-24 2.88E-24
  6.76E-24 1.59E-24 5.10E-24 2.35E-24 6.00E-24 1.59E-24 8.62E-25 1.24E-24
  4.41E-25 6.87E-25 7.84E-24 7.64E-25 6.17E-24 1.47E-24 1.68E-24 5.57E-25
  6.77E-25 4.81E-24 2.46E-24 6.36E-24 4.99E-25 1.51E-24 5.87E-24 2.59E-24
  2.09E-24 1.84E-24 3.63E-24 4.46E-25 1.81E-24 4.08E-25 2.26E-24 1.14E-24
  2.51E-24 8.49E-25 1.75E-24 1.86E-24 9.45E-25 6.60E-25 2.99E-24 1.30E-24
  3.91E-24 4.57E-24 2.17E-24 1.04E-24 1.92E-24 1.98E-24 4.42E-24 2.06E-24
  6.02E-24 6.12E-25 7.08E-25 3.48E-24 4.43E-25 1.99E-24 2.83E-24 3.12E-25
  2.94E-25 3.16E-25 5.63E-25 1.21E-24 6.89E-25 1.48E-24 7.65E-25 3.24E-24
  7.50E-25 2.35E-24 4.43E-24 4.28E-25 2.59E-24 9.83E-25 2.26E-24 4.52E-24
  3.03E-25 9.68E-25 1.17E-24 3.52E-24 6.11E-25 5.56E-24 5.95E-25 3.09E-25
  8.52E-25 6.05E-25 7.76E-25 1.30E-24 1.68E-24 1.45E-24 1.87E-24 6.74E-23
  2.07E-23 3.57E-18 2.29E-17 1.18E-15 9.16E-13 1.45E-08 3.48E-08 2.97E-07
  4.48E-07
   0.5000  0.5000  0.0000    1  5.90939E-05 kpt; spin; max resid(k); each band:
  1.22E-24 1.22E-24 7.46E-25 7.36E-25 5.16E-24 5.16E-24 1.70E-25 1.70E-25
  4.50E-24 4.51E-24 2.02E-24 1.96E-24 5.29E-25 5.30E-25 7.29E-24 7.29E-24
  7.93E-25 6.50E-25 1.09E-24 1.09E-24 6.87E-24 6.87E-24 6.47E-25 6.47E-25
  4.50E-25 3.97E-25 8.72E-25 8.71E-25 1.78E-24 1.78E-24 6.44E-24 6.44E-24
  1.55E-24 1.58E-24 3.92E-25 3.92E-25 2.66E-24 2.66E-24 8.20E-24 8.20E-24
  7.48E-25 7.47E-25 1.00E-24 9.16E-25 5.73E-25 5.76E-25 1.55E-25 1.56E-25
  1.73E-24 1.71E-24 6.75E-25 6.74E-25 2.66E-24 2.67E-24 3.96E-25 3.97E-25
  7.31E-24 7.31E-24 1.20E-24 1.20E-24 3.51E-25 3.32E-25 2.41E-25 2.40E-25
  1.48E-24 1.48E-24 1.48E-24 1.48E-24 3.03E-24 3.01E-24 7.25E-25 7.07E-25
  1.86E-24 1.86E-24 4.37E-25 4.38E-25 1.12E-24 1.12E-24 5.39E-24 5.40E-24
  5.25E-25 5.26E-25 1.56E-24 1.56E-24 3.30E-24 3.29E-24 5.53E-24 5.53E-24
  6.52E-25 6.50E-25 1.07E-24 1.05E-24 3.27E-25 3.28E-25 1.79E-20 3.24E-21
  2.21E-15 3.09E-15 3.99E-14 1.65E-14 1.33E-08 1.21E-06 9.70E-07 5.91E-05
  2.56E-06
  -0.2500  0.5000  0.2500    1  2.04415E-05 kpt; spin; max resid(k); each band:
  5.77E-25 5.78E-25 2.19E-24 2.19E-24 4.68E-24 4.79E-24 4.55E-25 4.55E-25
  3.60E-24 3.59E-24 1.41E-24 1.41E-24 6.63E-24 6.79E-24 1.27E-24 1.27E-24
  3.11E-24 3.11E-24 1.15E-24 1.15E-24 5.72E-25 5.72E-25 4.78E-25 4.80E-25
  9.19E-24 8.81E-24 1.91E-24 1.91E-24 1.33E-24 1.33E-24 5.45E-24 5.44E-24
  5.82E-25 5.61E-25 4.49E-24 4.53E-24 7.42E-25 7.41E-25 1.22E-24 1.22E-24
  4.24E-24 4.13E-24 1.52E-24 1.51E-24 8.85E-25 8.85E-25 5.38E-25 5.44E-25
  4.44E-24 4.40E-24 2.30E-24 2.15E-24 1.62E-24 1.61E-24 1.46E-24 1.46E-24
  2.88E-24 2.92E-24 3.80E-25 3.80E-25 2.20E-24 2.40E-24 2.49E-24 2.43E-24
  1.07E-24 1.07E-24 9.56E-25 9.53E-25 7.38E-25 6.74E-25 9.17E-25 9.14E-25
  3.66E-24 3.74E-24 6.45E-25 6.43E-25 2.69E-24 2.69E-24 3.84E-24 3.80E-24
  3.24E-24 3.27E-24 6.12E-25 6.09E-25 2.16E-24 2.10E-24 8.51E-25 8.52E-25
  9.42E-25 9.60E-25 4.29E-25 4.30E-25 1.45E-24 1.45E-24 1.08E-24 1.14E-24
  6.39E-24 6.42E-24 1.48E-24 1.49E-24 2.11E-16 1.31E-16 1.05E-13 2.35E-14
  2.04E-05
 
 outwf: write wavefunction to file diamond_gw_ppm_o_DS1_WFK, with iomode -1
 outwf with iomode: -1, cpu_time:     0.02[s], walltime:     0.07 [s]
 prteigrs : about to open file diamond_gw_ppm_o_DS1_EIG
 Fermi (or HOMO) energy (hartree) =   0.48977   Average Vxc (hartree)=  -0.49735
 Eigenvalues (hartree) for nkpt=   8  k points:
 kpt#   1, nband=105, wtk=  0.01563, kpt=  0.0000  0.0000  0.0000 (reduced coord)
  -0.30036    0.48977    0.48977    0.48977    0.69543    0.69543    0.69543    0.99594
   1.19333    1.47792    1.47792    1.50226    1.50226    1.50226    1.75744    2.24208
   2.24208    2.24208    2.99091    2.99091    2.99091    3.15390    3.15390    3.25861
   3.25861    3.25861    3.46061    3.46061    3.46061    3.54762    4.15921    4.15921
   4.15921    4.37365    4.37365    4.38285    4.38285    4.38285    4.38362    4.38362
   4.54769    4.54769    4.54769    4.55691    4.59267    4.59267    4.59267    4.63330
   4.63330    4.63330    4.69320    4.97409    4.97409    4.97409    5.00179    5.00179
   5.00179    5.06826    5.14463    6.46978    6.46978    6.46978    6.61505    6.61505
   6.74709    6.93459    6.93459    6.93459    7.28295    7.28295    7.28295    7.57272
   7.65407    7.65407    7.74432    7.74432    7.74432    7.76085    7.76085    7.76085
   7.77764    7.83850    7.83850    7.83850    7.98988    7.98988    7.98988    8.00214
   8.00214    8.29292    8.29292    8.29292    8.29904    8.29904    8.42319    8.49433
   8.49433    8.49433    8.50833    8.50834    8.50835    8.53756    8.53769    8.53800
   8.55565
 kpt#   2, nband=105, wtk=  0.12500, kpt=  0.2500  0.0000  0.0000 (reduced coord)
  -0.23638    0.24816    0.42505    0.42505    0.77666    0.77666    0.79629    1.03276
   1.24581    1.31761    1.31761    1.42258    1.93409    1.93409    2.06989    2.06989
   2.08867    2.13092    2.68816    2.68816    3.02594    3.08610    3.08610    3.27994
   3.27994    3.33222    3.33612    3.47301    3.56137    3.56137    3.86619    3.90892
   3.90892    4.02947    4.02947    4.04919    4.08840    4.14402    4.14402    4.42731
   4.44229    4.44229    4.53885    4.79902    4.79902    4.81289    4.88694    4.88694
   4.99913    5.19029    5.19029    5.26908    5.34942    5.52345    5.52345    5.54280
   5.69149    5.69149    5.78386    5.78386    5.90273    6.03075    6.27079    6.27079
   6.31444    6.57176    6.57176    6.64254    7.02464    7.02464    7.24629    7.28696
   7.28696    7.30707    7.33319    7.33319    7.42650    7.42650    7.51631    7.55666
   7.61043    7.61043    7.69277    7.77481    7.77481    7.86890    8.04408    8.04408
   8.06756    8.09280    8.18169    8.21856    8.21856    8.37758    8.37758    8.40696
   8.50144    8.50144    8.66517    8.77647    8.77647    8.90333    8.93945    8.93945
   8.98786
 kpt#   3, nband=105, wtk=  0.06250, kpt=  0.5000  0.0000  0.0000 (reduced coord)
  -0.08156   -0.00591    0.38606    0.38606    0.80092    0.80092    0.82841    1.06197
   1.28969    1.37692    1.44719    1.44719    1.75245    1.75245    2.17610    2.47018
   2.47018    2.54299    2.60932    2.60932    2.70562    2.70562    2.82445    2.89198
   3.21831    3.21831    3.31138    3.31138    3.47118    3.54298    3.57613    3.64710
   3.64710    3.74673    4.08626    4.08626    4.30488    4.33761    4.33761    4.41272
   4.54510    4.73196    5.04565    5.04565    5.10191    5.10191    5.18859    5.18859
   5.23957    5.23957    5.30269    5.41038    5.47116    5.54691    5.54691    5.72880
   5.72880    6.03092    6.03092    6.05049    6.07881    6.07881    6.24296    6.25878
   6.27790    6.32781    6.33169    6.33169    6.35881    6.35881    6.54888    6.68100
   6.99111    6.99111    7.01333    7.01333    7.20482    7.20482    7.44748    7.44748
   7.47421    7.63922    7.74500    7.74500    7.83140    7.84779    7.90718    8.01297
   8.01297    8.06826    8.32833    8.32833    8.42428    8.51973    8.53867    8.53867
   8.65307    8.65307    8.68730    8.68730    8.72354    8.73610    8.75002    8.78916
   8.78940
 kpt#   4, nband=105, wtk=  0.09375, kpt=  0.2500  0.2500  0.0000 (reduced coord)
  -0.21519    0.32853    0.33661    0.33661    0.65455    0.86861    0.91702    0.91702
   1.23490    1.29980    1.58656    1.69126    1.69126    1.80046    2.00616    2.00616
   2.17282    2.36509    2.45260    2.88362    2.88362    3.02419    3.05058    3.05058
   3.12111    3.18182    3.41226    3.59310    3.59310    3.80584    3.91104    3.91400
   3.91400    3.98368    4.06102    4.13990    4.17028    4.17028    4.26223    4.34055
   4.34055    4.36712    4.47493    4.65922    4.65922    4.86689    4.89824    5.04371
   5.05039    5.05039    5.07654    5.08707    5.41241    5.68233    5.71578    5.71578
   5.92752    6.05075    6.05075    6.05613    6.08847    6.08847    6.20273    6.47275
   6.47275    6.50985    6.51062    6.67903    6.77892    6.77892    6.81065    6.81831
   6.84685    6.97366    6.97366    7.07654    7.31400    7.31400    7.46548    7.48862
   7.59488    7.59488    7.64339    7.67880    7.90931    7.90931    8.06972    8.08771
   8.17970    8.36229    8.36229    8.45910    8.46607    8.47694    8.52368    8.52368
   8.59948    8.69120    8.70137    8.70137    8.74353    8.78459    8.91873    8.91873
   9.05648
 kpt#   5, nband=105, wtk=  0.37500, kpt=  0.5000  0.2500  0.0000 (reduced coord)
  -0.07515    0.09424    0.24180    0.30869    0.71410    0.91070    0.96202    0.98481
   1.23415    1.35699    1.50719    1.62909    1.82913    2.02389    2.12040    2.19140
   2.37331    2.38049    2.42123    2.62890    2.67982    2.77557    2.82822    2.97325
   3.03615    3.19237    3.24910    3.35911    3.44442    3.45349    3.69999    3.76166
   3.88884    3.89390    4.03414    4.17570    4.22855    4.42951    4.50729    4.50992
   4.57437    4.62098    4.78710    4.79957    4.90497    4.96809    5.05345    5.11564
   5.16862    5.22192    5.41256    5.46970    5.55074    5.71873    5.76937    5.85696
   5.90693    5.95603    6.04767    6.04830    6.10368    6.18139    6.26801    6.28350
   6.31137    6.38943    6.42445    6.50442    6.55144    6.63044    6.70999    6.72722
   6.84166    6.89363    6.97331    7.00626    7.06673    7.19773    7.31759    7.42239
   7.43669    7.47036    7.59096    7.62918    7.64523    7.73247    7.78519    7.82927
   7.85956    8.01263    8.02477    8.14564    8.21128    8.24545    8.34515    8.51213
   8.52210    8.53351    8.61381    8.61842    8.72843    8.75841    8.78000    8.78619
   8.88675
 kpt#   6, nband=105, wtk=  0.18750, kpt= -0.2500  0.2500  0.0000 (reduced coord)
  -0.13351    0.17292    0.20776    0.37808    0.78295    0.85876    0.94657    1.00672
   1.20775    1.25602    1.39873    1.71247    1.81486    2.02420    2.05797    2.06362
   2.38558    2.52161    2.52723    2.55124    2.72208    2.86413    2.91359    2.97980
   3.03388    3.14476    3.33957    3.42176    3.46633    3.59267    3.76603    3.80530
   3.83087    3.88855    3.93134    4.11867    4.15256    4.21451    4.27972    4.53609
   4.62697    4.65476    4.82635    4.89014    4.97672    5.02449    5.06187    5.15437
   5.19978    5.23136    5.37550    5.46040    5.50805    5.52086    5.57590    5.60818
   5.67955    5.87780    5.99684    6.01276    6.04030    6.21538    6.29917    6.30407
   6.31362    6.44714    6.47800    6.64849    6.65182    6.70962    6.72819    6.86307
   6.86398    6.93106    6.98384    7.18249    7.19868    7.21452    7.23935    7.38805
   7.43607    7.48452    7.56549    7.66870    7.71595    7.74488    7.82748    7.83539
   7.88582    7.94682    8.06356    8.20513    8.20803    8.47143    8.50575    8.56786
   8.57325    8.71560    8.72472    8.82332    8.85421    8.96277    8.97423    8.99184
   9.01287
 kpt#   7, nband=105, wtk=  0.04688, kpt=  0.5000  0.5000  0.0000 (reduced coord)
   0.02423    0.02423    0.25582    0.25582    0.66570    0.66570    1.10935    1.10935
   1.34273    1.34273    1.68445    1.68445    1.91206    1.91206    2.28653    2.28653
   2.28729    2.28729    2.33714    2.33714    2.42878    2.42878    3.06356    3.06356
   3.17289    3.17289    3.33198    3.33198    3.55677    3.55677    3.81650    3.81650
   4.03155    4.03155    4.03235    4.03235    4.10433    4.10433    4.16730    4.16730
   4.65812    4.65812    4.87262    4.87262    5.03449    5.03449    5.31482    5.31482
   5.45269    5.45269    5.53516    5.53516    5.68125    5.68125    5.79279    5.79279
   5.79388    5.79388    5.83955    5.83955    5.89355    5.89355    5.91350    5.91350
   6.75245    6.75245    6.79382    6.79382    6.92969    6.92969    6.97601    6.97601
   7.01100    7.01100    7.07856    7.07856    7.09077    7.09077    7.15980    7.15980
   7.35848    7.35848    7.36318    7.36318    7.45979    7.45979    7.54304    7.54304
   7.66023    7.66023    7.66465    7.66465    8.21484    8.21484    8.49411    8.49411
   8.63205    8.63205    8.67826    8.67826    8.82010    8.82011    8.85717    8.85742
   8.89421
 kpt#   8, nband=105, wtk=  0.09375, kpt= -0.2500  0.5000  0.2500 (reduced coord)
   0.05588    0.05588    0.17872    0.17872    0.87716    0.87716    0.94942    0.94942
   1.27338    1.27338    1.61282    1.61282    2.08422    2.08422    2.16311    2.16311
   2.26945    2.26945    2.55156    2.55156    2.60524    2.60524    2.99775    2.99775
   3.00493    3.00493    3.05433    3.05433    3.62781    3.62781    3.68547    3.68547
   3.96358    3.96358    4.12680    4.12680    4.18870    4.18870    4.66190    4.66190
   4.72731    4.72731    4.78241    4.78241    5.03080    5.03080    5.08463    5.08463
   5.36139    5.36139    5.40359    5.40359    5.48026    5.48026    5.64239    5.64239
   6.03594    6.03594    6.04302    6.04302    6.18744    6.18744    6.22819    6.22819
   6.26276    6.26276    6.36086    6.36086    6.80171    6.80171    7.03236    7.03236
   7.12080    7.12080    7.15575    7.15575    7.18295    7.18295    7.18439    7.18439
   7.20182    7.20182    7.28492    7.28492    7.77246    7.77246    7.80661    7.80661
   7.87842    7.87842    7.90495    7.90495    8.19408    8.19408    8.20047    8.20047
   8.25285    8.25285    8.28712    8.28712    8.64410    8.64410    8.74054    8.74054
   8.92563
 Total charge density [el/Bohr^3]
      Maximum=    2.9706E-01  at reduced coord.    0.0417    0.0833    0.8333
 Next maximum=    2.9706E-01  at reduced coord.    0.0833    0.0417    0.8333
      Minimum=    1.3864E-02  at reduced coord.    0.5000    0.5000    0.5000
 Next minimum=    1.3864E-02  at reduced coord.    0.7500    0.7500    0.7500
   Integrated=    8.0000E+00
 
 Cartesian components of stress tensor (hartree/bohr^3)
  sigma(1 1)=  3.38468311E-04  sigma(3 2)=  0.00000000E+00
  sigma(2 2)=  3.38468311E-04  sigma(3 1)=  0.00000000E+00
  sigma(3 3)=  3.38468311E-04  sigma(2 1)=  0.00000000E+00
 
-Cartesian components of stress tensor (GPa)         [Pressure= -9.9581E+00 GPa]
- sigma(1 1)=  9.95807984E+00  sigma(3 2)=  0.00000000E+00
- sigma(2 2)=  9.95807984E+00  sigma(3 1)=  0.00000000E+00
- sigma(3 3)=  9.95807984E+00  sigma(2 1)=  0.00000000E+00
 
================================================================================
== DATASET  2 ==================================================================
-   nproc =   40   -> not optimal: autoparal keyword recommended in input file
 
 
--- !COMMENT
src_file: m_xgScalapack.F90
src_line: 220
message: |
    xgScalapack in auto mode
...
 
 mkfilename : getwfk/=0, take file _WFK from output of DATASET   1.
 
 
 getdim_nloc : deduce lmnmax  =   9, lnmax  =   3,
                      lmnmaxso=   9, lnmaxso=   3.
 Exchange-correlation functional for the present dataset will be:
  LDA: Perdew-Zunger-Ceperley-Alder - ixc=2
 Citation for XC functional:
  J.P.Perdew and A.Zunger, PRB 23, 5048 (1981)
 
 SCREENING: Calculation of the susceptibility and dielectric matrices 
 
 Based on a program developped by R.W. Godby, V. Olevano, G. Onida, and L. Reining.
 Incorporated in ABINIT by V. Olevano, G.-M. Rignanese, and M. Torrent.
.Using single precision arithmetic ; gwpc =  4
 
 Unit cell volume ucvol=  7.5306137E+01 bohr^3
 Angles (23,13,12)=  6.00000000E+01  6.00000000E+01  6.00000000E+01 degrees
 
 getcut: wavevector=  0.0000  0.0000  0.0000  ngfft=  24  24  24
         ecut(hartree)=     29.871   => boxcut(ratio)=   2.05798
 
 ==== Dense FFT mesh used for densities and potentials ====
  FFT mesh divisions ........................    24   24   24
  Augmented FFT divisions ...................    25   25   24
  FFT algorithm .............................   112
  FFT cache size ............................    16
- pspini: atom type   1  psp file is ../C.pz-mt.fhi
- pspatm: opening atomic psp file    ../C.pz-mt.fhi
- Carbon, fhi98PP: Troullier-Martins type, LDA CA Perdew/Zunger 1980, generated by Han Yang
-  6.00000   4.00000    200323                znucl, zion, pspdat
    6    2    2    2       461   0.00000      pspcod,pspxc,lmax,lloc,mmax,r2well
    0.00000000000000    0.00000000000000    0.00000000000000   rchrg,fchrg,qchrg
  1.024700          amesh (Hamman grid)
  pspatm : epsatm=    2.67376634
         --- l  ekb(1:nproj) -->
             0    3.126556
             1   -1.684041
 pspatm: atomic psp has been read  and splines computed
 
 ==== Info on pseudopotentials ====
  Norm-conserving pseudopotentials
  Number of pseudopotentials ..    1
  Number of types of atoms   ..    1
  Scalar calculation (no spin-orbit term)
  Nonlocal part applied using Legendre polynomials
  Max number of non-local projectors over l and type   1
  Highest angular momentum +1 .......   3
  Max number of (l,n)   components ..   3
  Max number of (l,m,n) components ..   3
 
 Info on the Q-grid used for form factors in spline form: 
   Number of q-points for radial functions ffspl ..   3001
   Number of q-points for vlspl ...................   3001
   vloc is computed in Reciprocal Space
   model core charge treated in real-space
 
  XC functional for type 1 is 2
  Pseudo valence available: no
 
 
 GW calculation type              =    0
 zcut to avoid poles in chi0 [eV] =   0.100000
 
 
 Sorting g-vecs for an output of states on an unique "big" PW basis.
 Since the number of g's to be written on file
 was 0 or too large, it has been set to the max. value.,
 computed from the union of the sets of G vectors for the different k-points.
 Number of G-vectors is:   869
[...]
    5   0.000   0.000   0.000  -0.000   0.000   0.000  -0.000  -0.000  -0.000
    6  23.869 -14.462  -7.168  -6.247   0.854  -0.171 -13.568   0.894  24.762
    6   0.000   0.000   0.000  -0.000   0.000   0.000  -0.000  -0.000  -0.000
    7  25.835 -16.220  -7.782  -7.275   0.840  -0.191 -15.243   0.977  26.812
    7   0.000   0.000   0.000  -0.001   0.000   0.000  -0.001  -0.001  -0.001
    8  25.835 -16.220  -7.782  -7.275   0.840  -0.191 -15.243   0.977  26.812
    8   0.000   0.000   0.000  -0.001   0.000   0.000  -0.001  -0.001  -0.001
 
 E^0_gap         19.006
 E^GW_gap        21.336
 DeltaE^GW_gap    2.330
 
 top of valence       [eV]  12.32
 bottom of conduction [eV]  18.35
 Fermi energy         [eV]  15.34
 
 
 New Fermi energy :        5.636216E-01 Ha ,    1.533692E+01 eV
 New Exchange energy :    -3.170120E+00 Ha ,   -8.626334E+01 eV
 
== END DATASET(S) ==============================================================
================================================================================
  outvars : multivals%nkpthf =           0
  outvars : dtsets(1:ndtset_alloc)%nkpthf =          64          64          64
  
 -outvars: echo values of variables after computation  --------
 
 These variables are accessible in NetCDF format (diamond_gw_ppm_o_OUT.nc)

  outvars : multivals%nkpthf =           0
  outvars : dtsets(1:ndtset_alloc)%nkpthf =          64          64          64
            acell      6.7034255112E+00  6.7034255112E+00  6.7034255112E+00 Bohr
              amu      1.20110000E+01
           diemac      6.00000000E+00
             ecut1     3.00000000E+01 Hartree
             ecut2     2.98706778E+01 Hartree
             ecut3     2.98706778E+01 Hartree
          ecuteps1     0.00000000E+00 Hartree
          ecuteps2     7.02839479E+00 Hartree
          ecuteps3     7.02839479E+00 Hartree
         ecutsigx1     0.00000000E+00 Hartree
         ecutsigx2     0.00000000E+00 Hartree
         ecutsigx3     2.98706778E+01 Hartree
          ecutwfn1     0.00000000E+00 Hartree
          ecutwfn2     2.98706778E+01 Hartree
          ecutwfn3     2.98706778E+01 Hartree
           etotal1    -1.1439414243E+01
           etotal2     0.0000000000E+00
           etotal3     0.0000000000E+00
            fcart1     0.0000000000E+00  0.0000000000E+00  0.0000000000E+00
                       0.0000000000E+00  0.0000000000E+00  0.0000000000E+00
            fcart2     0.0000000000E+00  0.0000000000E+00  0.0000000000E+00
                       0.0000000000E+00  0.0000000000E+00  0.0000000000E+00
            fcart3     0.0000000000E+00  0.0000000000E+00  0.0000000000E+00
                       0.0000000000E+00  0.0000000000E+00  0.0000000000E+00
-          fftalg         112
           getscr1          0
           getscr2          0
           getscr3         -1
           getwfk1          0
           getwfk2         -1
           getwfk3         -2
       gw_qprange1          0
       gw_qprange2          0
       gw_qprange3         -4
         icutcoul           7
             iscf1         12
             iscf2          7
             iscf3          7
           istwfk        1    0    1    0    0    0    1    0
              ixc           2
           jdtset        1    2    3
              kpt      0.00000000E+00  0.00000000E+00  0.00000000E+00
                       2.50000000E-01  0.00000000E+00  0.00000000E+00
                       5.00000000E-01  0.00000000E+00  0.00000000E+00
                       2.50000000E-01  2.50000000E-01  0.00000000E+00
                       5.00000000E-01  2.50000000E-01  0.00000000E+00
                      -2.50000000E-01  2.50000000E-01  0.00000000E+00
                       5.00000000E-01  5.00000000E-01  0.00000000E+00
                      -2.50000000E-01  5.00000000E-01  2.50000000E-01
         kptrlatt        4    0    0      0    4    0      0    0    4
          kptrlen      1.89601505E+01
P           mkmem           1
            natom           2
            nband1        105
            nband2        100
            nband3        100
           nbdbuf1          5
           nbdbuf2          0
           nbdbuf3          0
           ndtset           3
            ngfft          24      24      24
             nkpt           8
           npweps1          0
           npweps2         65
           npweps3         65
          npwsigx1          0
          npwsigx2          0
          npwsigx3        609
           npwwfn1          0
           npwwfn2        609
           npwwfn3        609
            nstep         200
             nsym          48
           ntypat           1
              occ1     2.000000  2.000000  2.000000  2.000000  0.000000  0.000000
                       0.000000  0.000000  0.000000  0.000000  0.000000  0.000000
                       0.000000  0.000000  0.000000  0.000000  0.000000  0.000000
                       0.000000  0.000000  0.000000  0.000000  0.000000  0.000000
                       0.000000  0.000000  0.000000  0.000000  0.000000  0.000000
                       0.000000  0.000000  0.000000  0.000000  0.000000  0.000000
                       0.000000  0.000000  0.000000  0.000000  0.000000  0.000000
                       0.000000  0.000000  0.000000  0.000000  0.000000  0.000000
                       0.000000  0.000000  0.000000  0.000000  0.000000  0.000000
                       0.000000  0.000000  0.000000  0.000000  0.000000  0.000000
                       0.000000  0.000000  0.000000  0.000000  0.000000  0.000000
                       0.000000  0.000000  0.000000  0.000000  0.000000  0.000000
                       0.000000  0.000000  0.000000  0.000000  0.000000  0.000000
                       0.000000  0.000000  0.000000  0.000000  0.000000  0.000000
                       0.000000  0.000000  0.000000  0.000000  0.000000  0.000000
                       0.000000  0.000000  0.000000  0.000000  0.000000  0.000000
                       0.000000  0.000000  0.000000  0.000000  0.000000  0.000000
                       0.000000  0.000000  0.000000
              occ2     2.000000  2.000000  2.000000  2.000000  0.000000  0.000000
                       0.000000  0.000000  0.000000  0.000000  0.000000  0.000000
                       0.000000  0.000000  0.000000  0.000000  0.000000  0.000000
                       0.000000  0.000000  0.000000  0.000000  0.000000  0.000000
                       0.000000  0.000000  0.000000  0.000000  0.000000  0.000000
                       0.000000  0.000000  0.000000  0.000000  0.000000  0.000000
                       0.000000  0.000000  0.000000  0.000000  0.000000  0.000000
                       0.000000  0.000000  0.000000  0.000000  0.000000  0.000000
                       0.000000  0.000000  0.000000  0.000000  0.000000  0.000000
                       0.000000  0.000000  0.000000  0.000000  0.000000  0.000000
                       0.000000  0.000000  0.000000  0.000000  0.000000  0.000000
                       0.000000  0.000000  0.000000  0.000000  0.000000  0.000000
                       0.000000  0.000000  0.000000  0.000000  0.000000  0.000000
                       0.000000  0.000000  0.000000  0.000000  0.000000  0.000000
                       0.000000  0.000000  0.000000  0.000000  0.000000  0.000000
                       0.000000  0.000000  0.000000  0.000000  0.000000  0.000000
                       0.000000  0.000000  0.000000  0.000000
              occ3     2.000000  2.000000  2.000000  2.000000  0.000000  0.000000
                       0.000000  0.000000  0.000000  0.000000  0.000000  0.000000
                       0.000000  0.000000  0.000000  0.000000  0.000000  0.000000
                       0.000000  0.000000  0.000000  0.000000  0.000000  0.000000
                       0.000000  0.000000  0.000000  0.000000  0.000000  0.000000
                       0.000000  0.000000  0.000000  0.000000  0.000000  0.000000
                       0.000000  0.000000  0.000000  0.000000  0.000000  0.000000
                       0.000000  0.000000  0.000000  0.000000  0.000000  0.000000
                       0.000000  0.000000  0.000000  0.000000  0.000000  0.000000
                       0.000000  0.000000  0.000000  0.000000  0.000000  0.000000
                       0.000000  0.000000  0.000000  0.000000  0.000000  0.000000
                       0.000000  0.000000  0.000000  0.000000  0.000000  0.000000
                       0.000000  0.000000  0.000000  0.000000  0.000000  0.000000
                       0.000000  0.000000  0.000000  0.000000  0.000000  0.000000
                       0.000000  0.000000  0.000000  0.000000  0.000000  0.000000
                       0.000000  0.000000  0.000000  0.000000  0.000000  0.000000
                       0.000000  0.000000  0.000000  0.000000
        optdriver1          0
        optdriver2          3
        optdriver3          4
           ppmfrq1     0.00000000E+00 Hartree
           ppmfrq2     5.00000000E-01 Hartree
           ppmfrq3     5.00000000E-01 Hartree
          ppmodel1          1
          ppmodel2          2
          ppmodel3          2
            rprim      0.0000000000E+00  5.0000000000E-01  5.0000000000E-01
                       5.0000000000E-01  0.0000000000E+00  5.0000000000E-01
                       5.0000000000E-01  5.0000000000E-01  0.0000000000E+00
          spgroup         227
           strten1     3.3846831128E-04  3.3846831128E-04  3.3846831128E-04
                       0.0000000000E+00  0.0000000000E+00  0.0000000000E+00
           strten2     0.0000000000E+00  0.0000000000E+00  0.0000000000E+00
                       0.0000000000E+00  0.0000000000E+00  0.0000000000E+00
           strten3     0.0000000000E+00  0.0000000000E+00  0.0000000000E+00
                       0.0000000000E+00  0.0000000000E+00  0.0000000000E+00
           symrel      1  0  0   0  1  0   0  0  1      -1  0  0   0 -1  0   0  0 -1
                       0 -1  1   0 -1  0   1 -1  0       0  1 -1   0  1  0  -1  1  0
                      -1  0  0  -1  0  1  -1  1  0       1  0  0   1  0 -1   1 -1  0
                       0  1 -1   1  0 -1   0  0 -1       0 -1  1  -1  0  1   0  0  1
                      -1  0  0  -1  1  0  -1  0  1       1  0  0   1 -1  0   1  0 -1
                       0 -1  1   1 -1  0   0 -1  0       0  1 -1  -1  1  0   0  1  0
                       1  0  0   0  0  1   0  1  0      -1  0  0   0  0 -1   0 -1  0
                       0  1 -1   0  0 -1   1  0 -1       0 -1  1   0  0  1  -1  0  1
                      -1  0  1  -1  1  0  -1  0  0       1  0 -1   1 -1  0   1  0  0
                       0 -1  0   1 -1  0   0 -1  1       0  1  0  -1  1  0   0  1 -1
                       1  0 -1   0  0 -1   0  1 -1      -1  0  1   0  0  1   0 -1  1
                       0  1  0   0  0  1   1  0  0       0 -1  0   0  0 -1  -1  0  0
                       1  0 -1   0  1 -1   0  0 -1      -1  0  1   0 -1  1   0  0  1
                       0 -1  0   0 -1  1   1 -1  0       0  1  0   0  1 -1  -1  1  0
                      -1  0  1  -1  0  0  -1  1  0       1  0 -1   1  0  0   1 -1  0
                       0  1  0   1  0  0   0  0  1       0 -1  0  -1  0  0   0  0 -1
                       0  0 -1   0  1 -1   1  0 -1       0  0  1   0 -1  1  -1  0  1
                       1 -1  0   0 -1  1   0 -1  0      -1  1  0   0  1 -1   0  1  0
                       0  0  1   1  0  0   0  1  0       0  0 -1  -1  0  0   0 -1  0
                      -1  1  0  -1  0  0  -1  0  1       1 -1  0   1  0  0   1  0 -1
                       0  0  1   0  1  0   1  0  0       0  0 -1   0 -1  0  -1  0  0
                       1 -1  0   0 -1  0   0 -1  1      -1  1  0   0  1  0   0  1 -1
                       0  0 -1   1  0 -1   0  1 -1       0  0  1  -1  0  1   0 -1  1
                      -1  1  0  -1  0  1  -1  0  0       1 -1  0   1  0 -1   1  0  0
            tnons      0.0000000  0.0000000  0.0000000     0.2500000  0.2500000  0.2500000
                       0.0000000  0.0000000  0.0000000     0.2500000  0.2500000  0.2500000
                       0.0000000  0.0000000  0.0000000     0.2500000  0.2500000  0.2500000
                       0.0000000  0.0000000  0.0000000     0.2500000  0.2500000  0.2500000
                       0.0000000  0.0000000  0.0000000     0.2500000  0.2500000  0.2500000
                       0.0000000  0.0000000  0.0000000     0.2500000  0.2500000  0.2500000
                       0.0000000  0.0000000  0.0000000     0.2500000  0.2500000  0.2500000
                       0.0000000  0.0000000  0.0000000     0.2500000  0.2500000  0.2500000
                       0.0000000  0.0000000  0.0000000     0.2500000  0.2500000  0.2500000
                       0.0000000  0.0000000  0.0000000     0.2500000  0.2500000  0.2500000
                       0.0000000  0.0000000  0.0000000     0.2500000  0.2500000  0.2500000
                       0.0000000  0.0000000  0.0000000     0.2500000  0.2500000  0.2500000
                       0.0000000  0.0000000  0.0000000     0.2500000  0.2500000  0.2500000
                       0.0000000  0.0000000  0.0000000     0.2500000  0.2500000  0.2500000
                       0.0000000  0.0000000  0.0000000     0.2500000  0.2500000  0.2500000
                       0.0000000  0.0000000  0.0000000     0.2500000  0.2500000  0.2500000
                       0.0000000  0.0000000  0.0000000     0.2500000  0.2500000  0.2500000
                       0.0000000  0.0000000  0.0000000     0.2500000  0.2500000  0.2500000
                       0.0000000  0.0000000  0.0000000     0.2500000  0.2500000  0.2500000
                       0.0000000  0.0000000  0.0000000     0.2500000  0.2500000  0.2500000
                       0.0000000  0.0000000  0.0000000     0.2500000  0.2500000  0.2500000
                       0.0000000  0.0000000  0.0000000     0.2500000  0.2500000  0.2500000
                       0.0000000  0.0000000  0.0000000     0.2500000  0.2500000  0.2500000
                       0.0000000  0.0000000  0.0000000     0.2500000  0.2500000  0.2500000
           tolvrs1     1.00000000E-20
           tolvrs2     0.00000000E+00
           tolvrs3     0.00000000E+00
            typat      1  1
       usepotzero1          2
       usepotzero2          0
       usepotzero3          0
              wtk        0.01563    0.12500    0.06250    0.09375    0.37500    0.18750
                         0.04688    0.09375
           xangst      0.0000000000E+00  0.0000000000E+00  0.0000000000E+00
                       8.8682500000E-01  8.8682500000E-01  8.8682500000E-01
            xcart      0.0000000000E+00  0.0000000000E+00  0.0000000000E+00
                       1.6758563778E+00  1.6758563778E+00  1.6758563778E+00
             xred      0.0000000000E+00  0.0000000000E+00  0.0000000000E+00
                       2.5000000000E-01  2.5000000000E-01  2.5000000000E-01
            znucl        6.00000
 
================================================================================
  

================================================================================

 Suggested references for the acknowledgment of ABINIT usage.

 The users of ABINIT have little formal obligations with respect to the ABINIT group
 (those specified in the GNU General Public License, http://www.gnu.org/copyleft/gpl.txt).
 However, it is common practice in the scientific literature,
 to acknowledge the efforts of people that have made the research possible.
 In this spirit, please find below suggested citations of work written by ABINIT developers,
 corresponding to implementations inside of ABINIT that you have used in the present run.
 Note also that it will be of great value to readers of publications presenting these results,
 to read papers enabling them to understand the theoretical formalism and details
 of the ABINIT implementation.
 For information on why they are suggested, see also https://www.abinit.org/about/?text=acknowledgments.
-
- [1] Recent developments in the ABINIT software package.
- Computer Phys. Comm. 205, 106 (2016).
- X.Gonze, F.Jollet, F.Abreu Araujo, D.Adams, B.Amadon, T.Applencourt,
- C.Audouze, J.-M.Beuken, J.Bieder, A.Bokhanchuk, E.Bousquet, F.Bruneval
- D.Caliste, M.Cote, F.Dahm, F.Da Pieve, M.Delaveau, M.Di Gennaro,
- B.Dorado, C.Espejo, G.Geneste, L.Genovese, A.Gerossier, M.Giantomassi,
- Y.Gillet, D.R.Hamann, L.He, G.Jomard, J.Laflamme Janssen, S.Le Roux,
- A.Levitt, A.Lherbier, F.Liu, I.Lukacevic, A.Martin, C.Martins,
- M.J.T.Oliveira, S.Ponce, Y.Pouillon, T.Rangel, G.-M.Rignanese,
- A.H.Romero, B.Rousseau, O.Rubel, A.A.Shukri, M.Stankovski, M.Torrent,
- M.J.Van Setten, B.Van Troeye, M.J.Verstraete, D.Waroquier, J.Wiktor,
- B.Xue, A.Zhou, J.W.Zwanziger.
- Comment : the fourth generic paper describing the ABINIT project.
- Note that a version of this paper, that is not formatted for Computer Phys. Comm. 
- is available at https://www.abinit.org/about/ABINIT16.pdf .
- The licence allows the authors to put it on the Web.
-
- [2] Ab initio pseudopotentials for electronic structure calculations of poly-atomic systems, 
- using density-functional theory.
- M. Fuchs, M. Scheffler, Comput. Phys. Commun. 119, 67 (1999).
- Comment : Some pseudopotential generated using the FHI code were used.
-
- [3] ABINIT : First-principles approach of materials and nanosystem properties.
- Computer Phys. Comm. 180, 2582-2615 (2009).
- X. Gonze, B. Amadon, P.-M. Anglade, J.-M. Beuken, F. Bottin, P. Boulanger, F. Bruneval,
- D. Caliste, R. Caracas, M. Cote, T. Deutsch, L. Genovese, Ph. Ghosez, M. Giantomassi
- S. Goedecker, D.R. Hamann, P. Hermet, F. Jollet, G. Jomard, S. Leroux, M. Mancini, S. Mazevet,
- M.J.T. Oliveira, G. Onida, Y. Pouillon, T. Rangel, G.-M. Rignanese, D. Sangalli, R. Shaltaf,
- M. Torrent, M.J. Verstraete, G. Zerah, J.W. Zwanziger
- Comment : the third generic paper describing the ABINIT project.
- Note that a version of this paper, that is not formatted for Computer Phys. Comm. 
- is available at https://www.abinit.org/about/ABINIT_CPC_v10.pdf .
- The licence allows the authors to put it on the Web.
-
- [4] A brief introduction to the ABINIT software package.
- Z. Kristallogr. 220, 558-562 (2005).
- X. Gonze, G.-M. Rignanese, M. Verstraete, J.-M. Beuken, Y. Pouillon, R. Caracas, F. Jollet,
- M. Torrent, G. Zerah, M. Mikami, Ph. Ghosez, M. Veithen, J.-Y. Raty, V. Olevano, F. Bruneval,
- L. Reining, R. Godby, G. Onida, D.R. Hamann, and D.C. Allan.
- Comment : the second generic paper describing the ABINIT project. Note that this paper
- should be cited especially if you are using the GW part of ABINIT, as several authors
- of this part are not in the list of authors of the first or third paper.
- The .pdf of the latter paper is available at https://www.abinit.org/about/zfk_0505-06_558-562.pdf.
- Note that it should not redistributed (Copyright by Oldenburg Wissenshaftverlag,
- the licence allows the authors to put it on the Web).
-
- And optionally:
-
- [5] First-principles computation of material properties : the ABINIT software project. 
- X. Gonze, J.-M. Beuken, R. Caracas, F. Detraux, M. Fuchs, G.-M. Rignanese, L. Sindic,
- M. Verstraete, G. Zerah, F. Jollet, M. Torrent, A. Roy, M. Mikami, Ph. Ghosez, J.-Y. Raty, D.C. Allan.
- Computational Materials Science 25, 478-492 (2002). http://dx.doi.org/10.1016/S0927-0256(02)00325-7
- Comment : the original paper describing the ABINIT project.
  Asked to delete not existent file: diamond_gw_ppm_STATUS
 Proc.   0 individual time (sec): cpu=         10.9  wall=         11.4
 
 Calculation completed.
.Delivered   0 WARNINGs and   0 COMMENTs to log file.

--- !FinalSummary
program: abinit
version: 8.8.2
start_datetime: Mon Jan 04 15:54:22 2021
end_datetime: Mon Jan 04 15:54:33 2021
overall_cpu_time:         450.0
overall_wall_time:         455.9
exit_requested_by_user: no 
timelimit: 0
pseudos: 
    C   : 6af6663c3cc5e3690b4165cefd32a478
usepaw: 0
mpi_procs: 40
omp_threads: 1
num_warnings: 0
num_comments: 0
...
