
     Program PWSCF v.6.1 (svn rev. 13369) starts on 17Nov2020 at  9:14: 1 

     This program is part of the open-source Quantum ESPRESSO suite
     for quantum simulation of materials; please cite
         "P. Giannozzi et al., J. Phys.:Condens. Matter 21 395502 (2009);
          URL http://www.quantum-espresso.org", 
     in publications or presentations arising from this work. More details at
     http://www.quantum-espresso.org/quote

     Parallel version (MPI & OpenMP), running on     140 processor cores
     Number of MPI processes:               140
     Threads/MPI process:                     1
     R & G space division:  proc/nbgrp/npool/nimage =     140
     Waiting for input...
     Reading input from standard input

     Current dimensions of program PWSCF are:
     Max number of different atomic species (ntypx) = 10
     Max number of k-points (npk) =  40000
     Max angular momentum in pseudopotentials (lmaxx) =  3

     IMPORTANT: XC functional enforced from input :
     Exchange-correlation      = PBE ( 1  4  3  4 0 0)
     Any further DFT definition will be discarded
     Please, verify this is what you really want


     Subspace diagonalization in iterative solution of the eigenvalue problem:
     one sub-group per band group will be used
     scalapack distributed-memory algorithm (size of sub-group:  8*  8 procs)

 
     Parallelization info
     --------------------
     sticks:   dense  smooth     PW     G-vecs:    dense   smooth      PW
     Min          55      55     13                 3213     3213     397
     Max          56      56     14                 3220     3220     405
     Sum        7765    7765   1945               450159   450159   56233
 


     bravais-lattice index     =            2
     lattice parameter (alat)  =      33.5171  a.u.
     unit-cell volume          =    9413.2672 (a.u.)^3
     number of atoms/cell      =          250
     number of atomic types    =            2
     number of electrons       =      1002.00
     number of Kohn-Sham states=          600
     kinetic-energy cutoff     =      50.0000  Ry
     charge density cutoff     =     200.0000  Ry
     convergence threshold     =      1.0E-10
     mixing beta               =       0.7000
     number of iterations used =            8  local-TF  mixing
     Exchange-correlation      = PBE ( 1  4  3  4 0 0)
     nstep                     =           50


     celldm(1)=  33.517128  celldm(2)=   0.000000  celldm(3)=   0.000000
     celldm(4)=   0.000000  celldm(5)=   0.000000  celldm(6)=   0.000000

     crystal axes: (cart. coord. in units of alat)
               a(1) = (  -0.500000   0.000000   0.500000 )  
               a(2) = (   0.000000   0.500000   0.500000 )  
               a(3) = (  -0.500000   0.500000   0.000000 )  

     reciprocal axes: (cart. coord. in units 2 pi/alat)
               b(1) = ( -1.000000 -1.000000  1.000000 )  
               b(2) = (  1.000000  1.000000  1.000000 )  
               b(3) = ( -1.000000  1.000000 -1.000000 )  


     PseudoPot. # 1 for C  read from file:
     ~/PseudoPotential/upf/C_ONCV_PBE-1.0.upf
     MD5 check sum: Not computed, couldn't open file
     Pseudo is Norm-conserving, Zval =  4.0
     Generated using ONCVPSP code by D. R. Hamann
     Using radial grid of  602 points,  4 beta functions with: 
                l(1) =   0
                l(2) =   0
                l(3) =   1
                l(4) =   1

     PseudoPot. # 2 for N  read from file:
     ~/PseudoPotential/upf/N_ONCV_PBE-1.0.upf
     MD5 check sum: Not computed, couldn't open file
     Pseudo is Norm-conserving, Zval =  5.0
     Generated using ONCVPSP code by D. R. Hamann
     Using radial grid of  602 points,  4 beta functions with: 
                l(1) =   0
                l(2) =   0
                l(3) =   1
                l(4) =   1

     atomic species   valence    mass     pseudopotential
        C              4.00    12.01100     C ( 1.00)
        N              5.00    14.00670     N ( 1.00)

     No symmetry found



   Cartesian axes

     site n.     atom                  positions (alat units)
         1           N   tau(   1) = (   0.0000000   0.0000000   0.0000000  )
         2           N   tau(   2) = (  -0.0500000   0.0500000   0.0500000  )
         3           C   tau(   3) = (  -0.1000000   0.1000000   0.0000000  )
         4           C   tau(   4) = (  -0.1500000   0.1500000   0.0500000  )
         5           C   tau(   5) = (  -0.2000000   0.2000000   0.0000000  )
         6           C   tau(   6) = (  -0.2500000   0.2500000   0.0500000  )
         7           C   tau(   7) = (  -0.3000000   0.3000000   0.0000000  )
         8           C   tau(   8) = (  -0.3500000   0.3500000   0.0500000  )
         9           C   tau(   9) = (  -0.4000000   0.4000000   0.0000000  )
        10           C   tau(  10) = (  -0.4500000   0.4500000   0.0500000  )
        11           C   tau(  11) = (   0.0000000   0.1000000   0.1000000  )
        12           C   tau(  12) = (  -0.0500000   0.1500000   0.1500000  )
        13           C   tau(  13) = (  -0.1000000   0.2000000   0.1000000  )
        14           C   tau(  14) = (  -0.1500000   0.2500000   0.1500000  )
        15           C   tau(  15) = (  -0.2000000   0.3000000   0.1000000  )
        16           C   tau(  16) = (  -0.2500000   0.3500000   0.1500000  )
        17           C   tau(  17) = (  -0.3000000   0.4000000   0.1000000  )
        18           C   tau(  18) = (  -0.3500000   0.4500000   0.1500000  )
        19           C   tau(  19) = (  -0.4000000   0.5000000   0.1000000  )
        20           C   tau(  20) = (  -0.4500000   0.5500000   0.1500000  )
        21           C   tau(  21) = (   0.0000000   0.2000000   0.2000000  )
        22           C   tau(  22) = (  -0.0500000   0.2500000   0.2500000  )
        23           C   tau(  23) = (  -0.1000000   0.3000000   0.2000000  )
        24           C   tau(  24) = (  -0.1500000   0.3500000   0.2500000  )
        25           C   tau(  25) = (  -0.2000000   0.4000000   0.2000000  )
        26           C   tau(  26) = (  -0.2500000   0.4500000   0.2500000  )
        27           C   tau(  27) = (  -0.3000000   0.5000000   0.2000000  )
        28           C   tau(  28) = (  -0.3500000   0.5500000   0.2500000  )
        29           C   tau(  29) = (  -0.4000000   0.6000000   0.2000000  )
        30           C   tau(  30) = (  -0.4500000   0.6500000   0.2500000  )
        31           C   tau(  31) = (   0.0000000   0.3000000   0.3000000  )
        32           C   tau(  32) = (  -0.0500000   0.3500000   0.3500000  )
        33           C   tau(  33) = (  -0.1000000   0.4000000   0.3000000  )
        34           C   tau(  34) = (  -0.1500000   0.4500000   0.3500000  )
        35           C   tau(  35) = (  -0.2000000   0.5000000   0.3000000  )
        36           C   tau(  36) = (  -0.2500000   0.5500000   0.3500000  )
        37           C   tau(  37) = (  -0.3000000   0.6000000   0.3000000  )
        38           C   tau(  38) = (  -0.3500000   0.6500000   0.3500000  )
        39           C   tau(  39) = (  -0.4000000   0.7000000   0.3000000  )
        40           C   tau(  40) = (  -0.4500000   0.7500000   0.3500000  )
        41           C   tau(  41) = (   0.0000000   0.4000000   0.4000000  )
        42           C   tau(  42) = (  -0.0500000   0.4500000   0.4500000  )
        43           C   tau(  43) = (  -0.1000000   0.5000000   0.4000000  )
        44           C   tau(  44) = (  -0.1500000   0.5500000   0.4500000  )
        45           C   tau(  45) = (  -0.2000000   0.6000000   0.4000000  )
        46           C   tau(  46) = (  -0.2500000   0.6500000   0.4500000  )
        47           C   tau(  47) = (  -0.3000000   0.7000000   0.4000000  )
        48           C   tau(  48) = (  -0.3500000   0.7500000   0.4500000  )
        49           C   tau(  49) = (  -0.4000000   0.8000000   0.4000000  )
        50           C   tau(  50) = (  -0.4500000   0.8500000   0.4500000  )
        51           C   tau(  51) = (  -0.1000000   0.0000000   0.1000000  )
        52           C   tau(  52) = (  -0.1500000   0.0500000   0.1500000  )
        53           C   tau(  53) = (  -0.2000000   0.1000000   0.1000000  )
        54           C   tau(  54) = (  -0.2500000   0.1500000   0.1500000  )
        55           C   tau(  55) = (  -0.3000000   0.2000000   0.1000000  )
        56           C   tau(  56) = (  -0.3500000   0.2500000   0.1500000  )
        57           C   tau(  57) = (  -0.4000000   0.3000000   0.1000000  )
        58           C   tau(  58) = (  -0.4500000   0.3500000   0.1500000  )
        59           C   tau(  59) = (  -0.5000000   0.4000000   0.1000000  )
        60           C   tau(  60) = (  -0.5500000   0.4500000   0.1500000  )
        61           C   tau(  61) = (  -0.1000000   0.1000000   0.2000000  )
        62           C   tau(  62) = (  -0.1500000   0.1500000   0.2500000  )
        63           C   tau(  63) = (  -0.2000000   0.2000000   0.2000000  )
        64           C   tau(  64) = (  -0.2500000   0.2500000   0.2500000  )
        65           C   tau(  65) = (  -0.3000000   0.3000000   0.2000000  )
        66           C   tau(  66) = (  -0.3500000   0.3500000   0.2500000  )
        67           C   tau(  67) = (  -0.4000000   0.4000000   0.2000000  )
        68           C   tau(  68) = (  -0.4500000   0.4500000   0.2500000  )
        69           C   tau(  69) = (  -0.5000000   0.5000000   0.2000000  )
        70           C   tau(  70) = (  -0.5500000   0.5500000   0.2500000  )
        71           C   tau(  71) = (  -0.1000000   0.2000000   0.3000000  )
        72           C   tau(  72) = (  -0.1500000   0.2500000   0.3500000  )
        73           C   tau(  73) = (  -0.2000000   0.3000000   0.3000000  )
        74           C   tau(  74) = (  -0.2500000   0.3500000   0.3500000  )
        75           C   tau(  75) = (  -0.3000000   0.4000000   0.3000000  )
        76           C   tau(  76) = (  -0.3500000   0.4500000   0.3500000  )
        77           C   tau(  77) = (  -0.4000000   0.5000000   0.3000000  )
        78           C   tau(  78) = (  -0.4500000   0.5500000   0.3500000  )
        79           C   tau(  79) = (  -0.5000000   0.6000000   0.3000000  )
        80           C   tau(  80) = (  -0.5500000   0.6500000   0.3500000  )
        81           C   tau(  81) = (  -0.1000000   0.3000000   0.4000000  )
        82           C   tau(  82) = (  -0.1500000   0.3500000   0.4500000  )
        83           C   tau(  83) = (  -0.2000000   0.4000000   0.4000000  )
        84           C   tau(  84) = (  -0.2500000   0.4500000   0.4500000  )
        85           C   tau(  85) = (  -0.3000000   0.5000000   0.4000000  )
        86           C   tau(  86) = (  -0.3500000   0.5500000   0.4500000  )
        87           C   tau(  87) = (  -0.4000000   0.6000000   0.4000000  )
        88           C   tau(  88) = (  -0.4500000   0.6500000   0.4500000  )
        89           C   tau(  89) = (  -0.5000000   0.7000000   0.4000000  )
        90           C   tau(  90) = (  -0.5500000   0.7500000   0.4500000  )
        91           C   tau(  91) = (  -0.1000000   0.4000000   0.5000000  )
        92           C   tau(  92) = (  -0.1500000   0.4500000   0.5500000  )
        93           C   tau(  93) = (  -0.2000000   0.5000000   0.5000000  )
        94           C   tau(  94) = (  -0.2500000   0.5500000   0.5500000  )
        95           C   tau(  95) = (  -0.3000000   0.6000000   0.5000000  )
        96           C   tau(  96) = (  -0.3500000   0.6500000   0.5500000  )
        97           C   tau(  97) = (  -0.4000000   0.7000000   0.5000000  )
        98           C   tau(  98) = (  -0.4500000   0.7500000   0.5500000  )
        99           C   tau(  99) = (  -0.5000000   0.8000000   0.5000000  )
       100           C   tau( 100) = (  -0.5500000   0.8500000   0.5500000  )
       101           C   tau( 101) = (  -0.2000000   0.0000000   0.2000000  )
       102           C   tau( 102) = (  -0.2500000   0.0500000   0.2500000  )
       103           C   tau( 103) = (  -0.3000000   0.1000000   0.2000000  )
       104           C   tau( 104) = (  -0.3500000   0.1500000   0.2500000  )
       105           C   tau( 105) = (  -0.4000000   0.2000000   0.2000000  )
       106           C   tau( 106) = (  -0.4500000   0.2500000   0.2500000  )
       107           C   tau( 107) = (  -0.5000000   0.3000000   0.2000000  )
       108           C   tau( 108) = (  -0.5500000   0.3500000   0.2500000  )
       109           C   tau( 109) = (  -0.6000000   0.4000000   0.2000000  )
       110           C   tau( 110) = (  -0.6500000   0.4500000   0.2500000  )
       111           C   tau( 111) = (  -0.2000000   0.1000000   0.3000000  )
       112           C   tau( 112) = (  -0.2500000   0.1500000   0.3500000  )
       113           C   tau( 113) = (  -0.3000000   0.2000000   0.3000000  )
       114           C   tau( 114) = (  -0.3500000   0.2500000   0.3500000  )
       115           C   tau( 115) = (  -0.4000000   0.3000000   0.3000000  )
       116           C   tau( 116) = (  -0.4500000   0.3500000   0.3500000  )
       117           C   tau( 117) = (  -0.5000000   0.4000000   0.3000000  )
       118           C   tau( 118) = (  -0.5500000   0.4500000   0.3500000  )
       119           C   tau( 119) = (  -0.6000000   0.5000000   0.3000000  )
       120           C   tau( 120) = (  -0.6500000   0.5500000   0.3500000  )
       121           C   tau( 121) = (  -0.2000000   0.2000000   0.4000000  )
       122           C   tau( 122) = (  -0.2500000   0.2500000   0.4500000  )
       123           C   tau( 123) = (  -0.3000000   0.3000000   0.4000000  )
       124           C   tau( 124) = (  -0.3500000   0.3500000   0.4500000  )
       125           C   tau( 125) = (  -0.4000000   0.4000000   0.4000000  )
       126           C   tau( 126) = (  -0.4500000   0.4500000   0.4500000  )
       127           C   tau( 127) = (  -0.5000000   0.5000000   0.4000000  )
       128           C   tau( 128) = (  -0.5500000   0.5500000   0.4500000  )
       129           C   tau( 129) = (  -0.6000000   0.6000000   0.4000000  )
       130           C   tau( 130) = (  -0.6500000   0.6500000   0.4500000  )
       131           C   tau( 131) = (  -0.2000000   0.3000000   0.5000000  )
       132           C   tau( 132) = (  -0.2500000   0.3500000   0.5500000  )
       133           C   tau( 133) = (  -0.3000000   0.4000000   0.5000000  )
       134           C   tau( 134) = (  -0.3500000   0.4500000   0.5500000  )
       135           C   tau( 135) = (  -0.4000000   0.5000000   0.5000000  )
       136           C   tau( 136) = (  -0.4500000   0.5500000   0.5500000  )
       137           C   tau( 137) = (  -0.5000000   0.6000000   0.5000000  )
       138           C   tau( 138) = (  -0.5500000   0.6500000   0.5500000  )
       139           C   tau( 139) = (  -0.6000000   0.7000000   0.5000000  )
       140           C   tau( 140) = (  -0.6500000   0.7500000   0.5500000  )
       141           C   tau( 141) = (  -0.2000000   0.4000000   0.6000000  )
       142           C   tau( 142) = (  -0.2500000   0.4500000   0.6500000  )
       143           C   tau( 143) = (  -0.3000000   0.5000000   0.6000000  )
       144           C   tau( 144) = (  -0.3500000   0.5500000   0.6500000  )
       145           C   tau( 145) = (  -0.4000000   0.6000000   0.6000000  )
       146           C   tau( 146) = (  -0.4500000   0.6500000   0.6500000  )
       147           C   tau( 147) = (  -0.5000000   0.7000000   0.6000000  )
       148           C   tau( 148) = (  -0.5500000   0.7500000   0.6500000  )
       149           C   tau( 149) = (  -0.6000000   0.8000000   0.6000000  )
       150           C   tau( 150) = (  -0.6500000   0.8500000   0.6500000  )
       151           C   tau( 151) = (  -0.3000000   0.0000000   0.3000000  )
       152           C   tau( 152) = (  -0.3500000   0.0500000   0.3500000  )
       153           C   tau( 153) = (  -0.4000000   0.1000000   0.3000000  )
       154           C   tau( 154) = (  -0.4500000   0.1500000   0.3500000  )
       155           C   tau( 155) = (  -0.5000000   0.2000000   0.3000000  )
       156           C   tau( 156) = (  -0.5500000   0.2500000   0.3500000  )
       157           C   tau( 157) = (  -0.6000000   0.3000000   0.3000000  )
       158           C   tau( 158) = (  -0.6500000   0.3500000   0.3500000  )
       159           C   tau( 159) = (  -0.7000000   0.4000000   0.3000000  )
       160           C   tau( 160) = (  -0.7500000   0.4500000   0.3500000  )
       161           C   tau( 161) = (  -0.3000000   0.1000000   0.4000000  )
       162           C   tau( 162) = (  -0.3500000   0.1500000   0.4500000  )
       163           C   tau( 163) = (  -0.4000000   0.2000000   0.4000000  )
       164           C   tau( 164) = (  -0.4500000   0.2500000   0.4500000  )
       165           C   tau( 165) = (  -0.5000000   0.3000000   0.4000000  )
       166           C   tau( 166) = (  -0.5500000   0.3500000   0.4500000  )
       167           C   tau( 167) = (  -0.6000000   0.4000000   0.4000000  )
       168           C   tau( 168) = (  -0.6500000   0.4500000   0.4500000  )
       169           C   tau( 169) = (  -0.7000000   0.5000000   0.4000000  )
       170           C   tau( 170) = (  -0.7500000   0.5500000   0.4500000  )
       171           C   tau( 171) = (  -0.3000000   0.2000000   0.5000000  )
       172           C   tau( 172) = (  -0.3500000   0.2500000   0.5500000  )
       173           C   tau( 173) = (  -0.4000000   0.3000000   0.5000000  )
       174           C   tau( 174) = (  -0.4500000   0.3500000   0.5500000  )
       175           C   tau( 175) = (  -0.5000000   0.4000000   0.5000000  )
       176           C   tau( 176) = (  -0.5500000   0.4500000   0.5500000  )
       177           C   tau( 177) = (  -0.6000000   0.5000000   0.5000000  )
       178           C   tau( 178) = (  -0.6500000   0.5500000   0.5500000  )
       179           C   tau( 179) = (  -0.7000000   0.6000000   0.5000000  )
       180           C   tau( 180) = (  -0.7500000   0.6500000   0.5500000  )
       181           C   tau( 181) = (  -0.3000000   0.3000000   0.6000000  )
       182           C   tau( 182) = (  -0.3500000   0.3500000   0.6500000  )
       183           C   tau( 183) = (  -0.4000000   0.4000000   0.6000000  )
       184           C   tau( 184) = (  -0.4500000   0.4500000   0.6500000  )
       185           C   tau( 185) = (  -0.5000000   0.5000000   0.6000000  )
       186           C   tau( 186) = (  -0.5500000   0.5500000   0.6500000  )
       187           C   tau( 187) = (  -0.6000000   0.6000000   0.6000000  )
       188           C   tau( 188) = (  -0.6500000   0.6500000   0.6500000  )
       189           C   tau( 189) = (  -0.7000000   0.7000000   0.6000000  )
       190           C   tau( 190) = (  -0.7500000   0.7500000   0.6500000  )
       191           C   tau( 191) = (  -0.3000000   0.4000000   0.7000000  )
       192           C   tau( 192) = (  -0.3500000   0.4500000   0.7500000  )
       193           C   tau( 193) = (  -0.4000000   0.5000000   0.7000000  )
       194           C   tau( 194) = (  -0.4500000   0.5500000   0.7500000  )
       195           C   tau( 195) = (  -0.5000000   0.6000000   0.7000000  )
       196           C   tau( 196) = (  -0.5500000   0.6500000   0.7500000  )
       197           C   tau( 197) = (  -0.6000000   0.7000000   0.7000000  )
       198           C   tau( 198) = (  -0.6500000   0.7500000   0.7500000  )
       199           C   tau( 199) = (  -0.7000000   0.8000000   0.7000000  )
       200           C   tau( 200) = (  -0.7500000   0.8500000   0.7500000  )
       201           C   tau( 201) = (  -0.4000000   0.0000000   0.4000000  )
       202           C   tau( 202) = (  -0.4500000   0.0500000   0.4500000  )
       203           C   tau( 203) = (  -0.5000000   0.1000000   0.4000000  )
       204           C   tau( 204) = (  -0.5500000   0.1500000   0.4500000  )
       205           C   tau( 205) = (  -0.6000000   0.2000000   0.4000000  )
       206           C   tau( 206) = (  -0.6500000   0.2500000   0.4500000  )
       207           C   tau( 207) = (  -0.7000000   0.3000000   0.4000000  )
       208           C   tau( 208) = (  -0.7500000   0.3500000   0.4500000  )
       209           C   tau( 209) = (  -0.8000000   0.4000000   0.4000000  )
       210           C   tau( 210) = (  -0.8500000   0.4500000   0.4500000  )
       211           C   tau( 211) = (  -0.4000000   0.1000000   0.5000000  )
       212           C   tau( 212) = (  -0.4500000   0.1500000   0.5500000  )
       213           C   tau( 213) = (  -0.5000000   0.2000000   0.5000000  )
       214           C   tau( 214) = (  -0.5500000   0.2500000   0.5500000  )
       215           C   tau( 215) = (  -0.6000000   0.3000000   0.5000000  )
       216           C   tau( 216) = (  -0.6500000   0.3500000   0.5500000  )
       217           C   tau( 217) = (  -0.7000000   0.4000000   0.5000000  )
       218           C   tau( 218) = (  -0.7500000   0.4500000   0.5500000  )
       219           C   tau( 219) = (  -0.8000000   0.5000000   0.5000000  )
       220           C   tau( 220) = (  -0.8500000   0.5500000   0.5500000  )
       221           C   tau( 221) = (  -0.4000000   0.2000000   0.6000000  )
       222           C   tau( 222) = (  -0.4500000   0.2500000   0.6500000  )
       223           C   tau( 223) = (  -0.5000000   0.3000000   0.6000000  )
       224           C   tau( 224) = (  -0.5500000   0.3500000   0.6500000  )
       225           C   tau( 225) = (  -0.6000000   0.4000000   0.6000000  )
       226           C   tau( 226) = (  -0.6500000   0.4500000   0.6500000  )
       227           C   tau( 227) = (  -0.7000000   0.5000000   0.6000000  )
       228           C   tau( 228) = (  -0.7500000   0.5500000   0.6500000  )
       229           C   tau( 229) = (  -0.8000000   0.6000000   0.6000000  )
       230           C   tau( 230) = (  -0.8500000   0.6500000   0.6500000  )
       231           C   tau( 231) = (  -0.4000000   0.3000000   0.7000000  )
       232           C   tau( 232) = (  -0.4500000   0.3500000   0.7500000  )
       233           C   tau( 233) = (  -0.5000000   0.4000000   0.7000000  )
       234           C   tau( 234) = (  -0.5500000   0.4500000   0.7500000  )
       235           C   tau( 235) = (  -0.6000000   0.5000000   0.7000000  )
       236           C   tau( 236) = (  -0.6500000   0.5500000   0.7500000  )
       237           C   tau( 237) = (  -0.7000000   0.6000000   0.7000000  )
       238           C   tau( 238) = (  -0.7500000   0.6500000   0.7500000  )
       239           C   tau( 239) = (  -0.8000000   0.7000000   0.7000000  )
       240           C   tau( 240) = (  -0.8500000   0.7500000   0.7500000  )
       241           C   tau( 241) = (  -0.4000000   0.4000000   0.8000000  )
       242           C   tau( 242) = (  -0.4500000   0.4500000   0.8500000  )
       243           C   tau( 243) = (  -0.5000000   0.5000000   0.8000000  )
       244           C   tau( 244) = (  -0.5500000   0.5500000   0.8500000  )
       245           C   tau( 245) = (  -0.6000000   0.6000000   0.8000000  )
       246           C   tau( 246) = (  -0.6500000   0.6500000   0.8500000  )
       247           C   tau( 247) = (  -0.7000000   0.7000000   0.8000000  )
       248           C   tau( 248) = (  -0.7500000   0.7500000   0.8500000  )
       249           C   tau( 249) = (  -0.8000000   0.8000000   0.8000000  )
       250           C   tau( 250) = (  -0.8500000   0.8500000   0.8500000  )

     number of k points=     1
                       cart. coord. in units 2pi/alat
        k(    1) = (   0.0000000   0.0000000   0.0000000), wk =   2.0000000

     Dense  grid:   450159 G-vectors     FFT dimensions: ( 108, 108, 108)

     Estimated max dynamical RAM per process >      53.79MB

     Estimated total allocated dynamical RAM >    7530.59MB

     Initial potential from superposition of free atoms

     starting charge 1000.26714, renormalised to 1002.00000
     Starting wfc are random

     total cpu time spent up to now is        2.6 secs

     per-process dynamical memory:    69.5 Mb

     Self-consistent Calculation

     iteration #  1     ecut=    50.00 Ry     beta=0.70
     Davidson diagonalization with overlap
     ethr =  1.00E-02,  avg # of iterations = 11.0

     total cpu time spent up to now is       23.2 secs

     total energy              =   -2862.73818941 Ry
     Harris-Foulkes estimate   =   -2867.52417707 Ry
     estimated scf accuracy    <      15.16907963 Ry

     iteration #  2     ecut=    50.00 Ry     beta=0.70
     Davidson diagonalization with overlap
     ethr =  1.51E-03,  avg # of iterations = 12.0

     total cpu time spent up to now is       35.9 secs

     total energy              =   -2862.00666046 Ry
     Harris-Foulkes estimate   =   -2863.38330595 Ry
     estimated scf accuracy    <       3.32509905 Ry

     iteration #  3     ecut=    50.00 Ry     beta=0.70
     Davidson diagonalization with overlap
     ethr =  3.32E-04,  avg # of iterations = 12.0

     total cpu time spent up to now is       48.9 secs

     total energy              =   -2862.36361580 Ry
     Harris-Foulkes estimate   =   -2862.35987140 Ry
     estimated scf accuracy    <       0.09518600 Ry

     iteration #  4     ecut=    50.00 Ry     beta=0.70
     Davidson diagonalization with overlap
     ethr =  9.50E-06,  avg # of iterations = 20.0

     total cpu time spent up to now is       82.7 secs

     total energy              =   -2862.39317592 Ry
     Harris-Foulkes estimate   =   -2862.38749805 Ry
     estimated scf accuracy    <       0.01590597 Ry

     iteration #  5     ecut=    50.00 Ry     beta=0.70
     Davidson diagonalization with overlap
     ethr =  1.59E-06,  avg # of iterations = 20.0

     total cpu time spent up to now is      106.8 secs

     total energy              =   -2862.39485387 Ry
     Harris-Foulkes estimate   =   -2862.39514649 Ry
     estimated scf accuracy    <       0.00336802 Ry

     iteration #  6     ecut=    50.00 Ry     beta=0.70
     Davidson diagonalization with overlap
     ethr =  3.36E-07,  avg # of iterations = 13.0

     total cpu time spent up to now is      119.2 secs

     total energy              =   -2862.39443478 Ry
     Harris-Foulkes estimate   =   -2862.39494543 Ry
     estimated scf accuracy    <       0.00217908 Ry

     iteration #  7     ecut=    50.00 Ry     beta=0.70
     Davidson diagonalization with overlap
     ethr =  2.17E-07,  avg # of iterations =  8.0

     total cpu time spent up to now is      130.0 secs

     total energy              =   -2862.39463475 Ry
     Harris-Foulkes estimate   =   -2862.39471085 Ry
     estimated scf accuracy    <       0.00022375 Ry

     iteration #  8     ecut=    50.00 Ry     beta=0.70
     Davidson diagonalization with overlap
     ethr =  2.23E-08,  avg # of iterations = 13.0

     total cpu time spent up to now is      148.5 secs

     total energy              =   -2862.39467224 Ry
     Harris-Foulkes estimate   =   -2862.39467449 Ry
     estimated scf accuracy    <       0.00002272 Ry

     iteration #  9     ecut=    50.00 Ry     beta=0.70
     Davidson diagonalization with overlap
     ethr =  2.27E-09,  avg # of iterations =  5.0

     total cpu time spent up to now is      154.4 secs

     total energy              =   -2862.39466968 Ry
     Harris-Foulkes estimate   =   -2862.39467347 Ry
     estimated scf accuracy    <       0.00001183 Ry

     iteration # 10     ecut=    50.00 Ry     beta=0.70
     Davidson diagonalization with overlap
     ethr =  1.18E-09,  avg # of iterations =  9.0

     total cpu time spent up to now is      167.3 secs

     total energy              =   -2862.39467154 Ry
     Harris-Foulkes estimate   =   -2862.39467157 Ry
     estimated scf accuracy    <       0.00000111 Ry

     iteration # 11     ecut=    50.00 Ry     beta=0.70
     Davidson diagonalization with overlap
     ethr =  1.11E-10,  avg # of iterations =  8.0

     total cpu time spent up to now is      180.4 secs

     total energy              =   -2862.39467159 Ry
     Harris-Foulkes estimate   =   -2862.39467169 Ry
     estimated scf accuracy    <       0.00000036 Ry

     iteration # 12     ecut=    50.00 Ry     beta=0.70
     Davidson diagonalization with overlap
     ethr =  3.60E-11,  avg # of iterations = 13.0

     total cpu time spent up to now is      196.7 secs

     total energy              =   -2862.39467161 Ry
     Harris-Foulkes estimate   =   -2862.39467163 Ry
     estimated scf accuracy    <       0.00000006 Ry

     iteration # 13     ecut=    50.00 Ry     beta=0.70
     Davidson diagonalization with overlap
     ethr =  6.45E-12,  avg # of iterations =  8.0

     total cpu time spent up to now is      208.6 secs

     total energy              =   -2862.39467162 Ry
     Harris-Foulkes estimate   =   -2862.39467162 Ry
     estimated scf accuracy    <          8.2E-09 Ry

     iteration # 14     ecut=    50.00 Ry     beta=0.70
     Davidson diagonalization with overlap
     ethr =  8.20E-13,  avg # of iterations =  8.0

     total cpu time spent up to now is      219.9 secs

     total energy              =   -2862.39467162 Ry
     Harris-Foulkes estimate   =   -2862.39467162 Ry
     estimated scf accuracy    <          2.1E-09 Ry

     iteration # 15     ecut=    50.00 Ry     beta=0.70
     Davidson diagonalization with overlap
     ethr =  2.13E-13,  avg # of iterations =  6.0

     total cpu time spent up to now is      227.4 secs

     total energy              =   -2862.39467162 Ry
     Harris-Foulkes estimate   =   -2862.39467162 Ry
     estimated scf accuracy    <          7.4E-10 Ry

     iteration # 16     ecut=    50.00 Ry     beta=0.70
     Davidson diagonalization with overlap
     ethr =  1.00E-13,  avg # of iterations = 12.0

     total cpu time spent up to now is      242.1 secs

     total energy              =   -2862.39467162 Ry
     Harris-Foulkes estimate   =   -2862.39467162 Ry
     estimated scf accuracy    <          1.5E-10 Ry

     iteration # 17     ecut=    50.00 Ry     beta=0.70
     Davidson diagonalization with overlap
     ethr =  1.00E-13,  avg # of iterations =  5.0

     total cpu time spent up to now is      247.2 secs

     End of self-consistent calculation

          k = 0.0000 0.0000 0.0000 ( 56233 PWs)   bands (ev):

    -8.8248  -7.8561  -7.0657  -6.9537  -6.9537  -6.9104  -6.9104  -6.9016
    -6.8976  -6.6672  -6.6247  -6.5616  -6.5616  -6.5389  -6.5389  -5.8480
    -5.6076  -5.1516  -5.1516  -5.1213  -5.1213  -5.1015  -5.0958  -5.0865
    -5.0865  -5.0844  -5.0844  -4.6369  -4.6318  -4.1387  -4.1387  -4.0774
    -4.0774  -4.0594  -4.0594  -4.0308  -4.0308  -4.0253  -4.0253  -4.0219
    -4.0216  -4.0158  -4.0127  -4.0127  -4.0111  -4.0111  -4.0058  -4.0058
    -4.0052  -4.0052  -4.0019  -3.7742  -3.7560  -3.7339  -3.7339  -3.7139
    -3.7121  -3.7121  -3.7013  -2.7295  -2.5743  -2.2756  -2.2756  -2.2652
    -2.2652  -2.0713  -2.0711  -1.7111  -1.7111  -1.6421  -1.6385  -1.6385
    -1.5917  -1.5917  -1.5903  -1.5903  -1.5763  -1.5704  -1.5648  -1.5648
    -1.5577  -1.5577  -1.5523  -1.5523  -1.5482  -1.5455  -1.5455  -1.5379
    -1.5375  -1.2604  -1.1892  -1.0903  -1.0903  -1.0865  -1.0865  -1.0509
    -1.0416  -1.0288  -1.0288  -1.0233  -1.0233  -1.0157  -1.0157  -1.0135
    -1.0135  -1.0107  -1.0005  -0.9968  -0.9968  -0.9960  -0.9927  -0.9907
    -0.9907   0.2621   0.5915   0.7842   0.7842   0.7905   0.7905   0.8379
     0.8460   0.8460   0.8484   0.8484   0.8606   1.0134   1.0665   1.0665
     1.0924   1.2612   1.2778   1.2820   1.2820   1.2923   1.2923   1.3125
     1.3125   1.3331   1.3354   1.3354   1.3371   1.3371   1.3379   1.3405
     1.3405   1.3533   1.3533   1.3534   1.3633   1.4105   1.4235   1.4301
     1.4301   1.4344   1.4344   1.4435   1.4515   1.4515   1.4561   1.4561
     1.4676   2.0452   2.0642   2.0745   2.0745   2.0967   2.1023   2.1023
     2.1141   2.9339   3.1184   3.2696   3.2696   3.2865   3.2865   3.3678
     3.3718   3.3971   3.3971   3.4018   3.4018   3.4122   3.4122   3.4178
     3.4204   3.4204   3.4307   3.4332   3.4358   3.4358   3.4423   3.4431
     3.4431   4.0514   4.0859   4.1014   4.1014   4.1169   4.1169   4.2548
     4.3970   4.3970   4.5672   4.5949   4.5949   4.6584   4.7138   4.7138
     4.7144   4.7265   4.7291   4.7291   4.7321   4.7321   4.7504   4.7594
     4.7594   4.7598   4.7631   4.7651   4.7697   4.7697   4.7741   4.7741
     4.7787   4.7787   4.7798   4.7798   4.7810   4.7810   4.7820   4.7839
     4.7861   4.7896   4.7896   5.0490   5.1065   5.1065   5.1314   5.1314
     5.1868   5.1927   5.1927   5.1934   5.1996   5.1996   5.2037   5.2099
     5.2185   5.2185   5.2198   5.2199   5.2199   5.2259   5.2268   5.2268
     5.2349   5.2367   5.2367   6.3638   6.4124   6.4673   6.4673   6.4933
     6.4933   6.6010   6.6071   6.6106   6.6106   6.6199   6.6199   6.6914
     6.8420   6.8420   6.8448   6.8448   7.0680   7.1042   7.1076   7.1108
     7.1108   7.1320   7.1320   7.1323   7.1517   7.1665   7.1665   7.1680
     7.1680   7.1750   7.1750   7.1875   7.1880   7.1880   7.1898   7.1929
     7.1929   7.1965   7.2005   7.2029   7.2029   7.2057   7.2096   7.2096
     7.2106   7.2106   7.2127   7.2191   7.2226   7.2226   7.2229   7.2229
     7.2264   7.2324   7.2346   7.2346   7.2381   7.2430   7.2430   7.4758
     7.4770   7.4770   7.4991   7.4991   7.5303   7.5397   7.5435   7.5663
     7.5663   7.5674   7.5674   7.5839   7.5839   7.5871   7.5871   7.5893
     7.6078   7.6370   7.6396   7.6396   7.6412   7.6412   7.6414   7.8442
     7.8486   7.8486   7.8510   7.8510   7.8701   7.8769   7.8778   7.8807
     7.8807   7.8868   7.8868   8.5278   8.5278   8.5460   8.5947   8.6699
     8.6699   8.6929   8.7115   8.7719   8.7782   8.7782   8.7918   8.7918
     8.8186   8.8565   8.8734   8.8734   8.8956   8.8974   8.9027   8.9027
     8.9047   8.9047   8.9072   8.9072   8.9145   8.9213   8.9213   8.9226
     8.9226   8.9232   8.9242   9.0837   9.0837   9.0926   9.1065   9.1065
     9.1572   9.1583   9.1633   9.1670   9.1670   9.1748   9.1748   9.1817
     9.1817   9.1837   9.1881   9.1934   9.1934   9.1999   9.1999   9.2009
     9.2021   9.2036   9.2036   9.6243   9.6359   9.6359   9.6682   9.6682
     9.7144   9.7279   9.7397   9.7397   9.7407   9.7407   9.7527   9.7688
     9.7756   9.7756   9.7773   9.7773   9.7794   9.7794   9.7870   9.7900
     9.7900   9.7911   9.7936  10.2771  10.2771  10.2944  10.3391  10.3391
    10.3551  10.3793  10.3827  10.3827  10.3894  10.3922  10.3922  10.4842
    10.5355  10.5355  10.5398  10.5555  10.5555  10.9029  10.9035  10.9035
    10.9078  10.9078  10.9598  10.9640  10.9640  11.0155  11.0156  11.0159
    11.0159  11.0162  11.0162  11.0370  11.0370  11.5549  11.5549  11.5705
    11.6152  11.6152  11.6365  11.6384  11.6384  11.6451  11.6614  11.6614
    11.6645  12.1904  12.1904  12.2100  12.3034  12.3034  12.3183  12.3200
    12.3200  12.3201  12.3231  12.3231  12.3333  12.3335  12.3335  12.3393
    12.3393  13.6480  13.6480  13.6547  17.2408  17.4973  17.8537  17.8537
    17.8590  17.8590  18.1416  18.2872  18.3628  18.3628  18.4354  18.4354
    18.5042  18.7955  18.9484  19.0116  19.0116  19.0320  19.0320  19.0755
    19.0755  19.0839  19.0839  19.0839  19.1832  19.2384  19.2384  19.4068
    19.5006  19.5924  19.6629  19.6629  19.6970  19.6970  19.8279  19.8279
    19.8330  19.8354  19.8354  19.8381  19.8385  19.8385  19.8436  19.8457
    19.8457  19.8473  19.8488  19.8488  19.8510  19.8544  19.8544  19.9171
    19.9336  19.9374  19.9374  19.9377  19.9377  20.3480  20.4526  20.6915
    20.6915  20.7029  20.7029  20.7950  20.9621  20.9621  20.9670  20.9670
    20.9962  20.9964  20.9999  20.9999  21.0004  21.0089  21.0125  21.0125
    21.0161  21.0161  21.0206  21.0213  21.0213  21.0234  21.0251  21.0251
    21.0538  21.0538  21.0596  21.0683  21.0702  21.0702  21.0748  21.0748
    21.0858  21.0864  21.0864  21.0912  21.0912  21.3431  21.4475  21.4697

     highest occupied, lowest unoccupied level (ev):    17.2408   17.4973

!    total energy              =   -2862.39467162 Ry
     Harris-Foulkes estimate   =   -2862.39467162 Ry
     estimated scf accuracy    <          4.8E-11 Ry

     The total energy is the sum of the following terms:

     one-electron contribution =    1016.39507419 Ry
     hartree contribution      =     244.41125832 Ry
     xc contribution           =    -896.13377425 Ry
     ewald contribution        =   -3227.06722988 Ry

     convergence has been achieved in  17 iterations

     Forces acting on atoms (cartesian axes, Ry/au):

     atom    1 type  2   force =     0.28376290   -0.28376291   -0.28376289
     atom    2 type  2   force =    -0.28375984    0.28375985    0.28375984
     atom    3 type  1   force =    -0.01683578    0.01683578    0.03670500
     atom    4 type  1   force =     0.01412849   -0.01412849   -0.00227874
     atom    5 type  1   force =    -0.00679032    0.00679031   -0.00475542
     atom    6 type  1   force =    -0.00317305    0.00317305   -0.00337983
     atom    7 type  1   force =     0.00335467   -0.00335468    0.00325425
     atom    8 type  1   force =     0.00665664   -0.00665664    0.00472459
     atom    9 type  1   force =    -0.01415421    0.01415421    0.00226553
     atom   10 type  1   force =     0.01679518   -0.01679517   -0.03674773
     atom   11 type  1   force =    -0.03670501    0.01683579    0.01683578
     atom   12 type  1   force =     0.00227875   -0.01412850   -0.01412849
     atom   13 type  1   force =     0.00152805    0.00211910   -0.00152805
     atom   14 type  1   force =     0.00081759    0.00134272   -0.00081759
     atom   15 type  1   force =     0.00090467   -0.00047060   -0.00050820
     atom   16 type  1   force =    -0.00137612   -0.00055756   -0.00071208
     atom   17 type  1   force =     0.00121993   -0.00160282   -0.00146032
     atom   18 type  1   force =    -0.00378886   -0.00594430   -0.00211112
     atom   19 type  1   force =    -0.00733282    0.01516271   -0.00161118
     atom   20 type  1   force =    -0.00163939   -0.01516984   -0.00741932
     atom   21 type  1   force =     0.00475543    0.00679031    0.00679032
     atom   22 type  1   force =     0.00337983    0.00317305    0.00317305
     atom   23 type  1   force =     0.00050819   -0.00047058   -0.00090466
     atom   24 type  1   force =     0.00071209   -0.00055756    0.00137612
     atom   25 type  1   force =     0.00040810    0.00063210   -0.00040809
     atom   26 type  1   force =     0.00025336   -0.00153484   -0.00025336
     atom   27 type  1   force =    -0.00054271    0.00315566   -0.00155057
     atom   28 type  1   force =    -0.00159373   -0.00320057   -0.00072106
     atom   29 type  1   force =    -0.00221161    0.00591705   -0.00380978
     atom   30 type  1   force =    -0.00145491    0.00179380    0.00120534
     atom   31 type  1   force =    -0.00325425   -0.00335467   -0.00335465
     atom   32 type  1   force =    -0.00472458   -0.00665664   -0.00665663
     atom   33 type  1   force =     0.00146031   -0.00160282   -0.00121993
     atom   34 type  1   force =     0.00211111   -0.00594431    0.00378885
     atom   35 type  1   force =     0.00155055    0.00315565    0.00054270
     atom   36 type  1   force =     0.00072107   -0.00320056    0.00159373
     atom   37 type  1   force =    -0.00025082    0.00172307    0.00025081
     atom   38 type  1   force =    -0.00042725   -0.00070097    0.00042727
     atom   39 type  1   force =    -0.00061445    0.00059082   -0.00137636
     atom   40 type  1   force =    -0.00061340    0.00045804    0.00077460
     atom   41 type  1   force =    -0.00226554    0.01415421    0.01415419
     atom   42 type  1   force =     0.03674773   -0.01679517   -0.01679519
     atom   43 type  1   force =     0.00161118    0.01516272    0.00733282
     atom   44 type  1   force =     0.00741931   -0.01516981    0.00163940
     atom   45 type  1   force =     0.00380978    0.00591704    0.00221161
     atom   46 type  1   force =    -0.00120536    0.00179379    0.00145491
     atom   47 type  1   force =     0.00137636    0.00059079    0.00061445
     atom   48 type  1   force =    -0.00077462    0.00045803    0.00061340
     atom   49 type  1   force =    -0.00083844   -0.00137085    0.00083844
     atom   50 type  1   force =    -0.00148412   -0.00204345    0.00148413
     atom   51 type  1   force =    -0.01683579    0.03670502    0.01683578
     atom   52 type  1   force =     0.01412850   -0.00227874   -0.01412849
     atom   53 type  1   force =    -0.00211912   -0.00152806   -0.00152805
     atom   54 type  1   force =    -0.00134272   -0.00081760   -0.00081759
     atom   55 type  1   force =     0.00047062   -0.00090466   -0.00050818
     atom   56 type  1   force =     0.00055753    0.00137612   -0.00071207
     atom   57 type  1   force =     0.00160281   -0.00121994   -0.00146031
     atom   58 type  1   force =     0.00594429    0.00378887   -0.00211112
     atom   59 type  1   force =    -0.01516270    0.00733282   -0.00161118
     atom   60 type  1   force =     0.01516982    0.00163938   -0.00741931
     atom   61 type  1   force =     0.00152806   -0.00152805    0.00211912
     atom   62 type  1   force =     0.00081760   -0.00081760    0.00134272
     atom   63 type  1   force =    -0.00020819    0.00020819    0.00020820
     atom   64 type  1   force =    -0.00072639    0.00072638    0.00072640
     atom   65 type  1   force =     0.00016243   -0.00016244   -0.00094792
     atom   66 type  1   force =     0.00106717   -0.00106718    0.00100486
     atom   67 type  1   force =    -0.00073094    0.00073095   -0.00099659
     atom   68 type  1   force =     0.00033741   -0.00033741    0.00004598
     atom   69 type  1   force =    -0.00149850    0.00149850   -0.00386058
     atom   70 type  1   force =    -0.00263287    0.00263286    0.00446896
     atom   71 type  1   force =     0.00050818   -0.00090466   -0.00047060
     atom   72 type  1   force =     0.00071209    0.00137610   -0.00055756
     atom   73 type  1   force =     0.00094792   -0.00016243   -0.00016243
     atom   74 type  1   force =    -0.00100487   -0.00106719   -0.00106718
     atom   75 type  1   force =    -0.00067899   -0.00072519    0.00067899
     atom   76 type  1   force =     0.00017331    0.00027874   -0.00017331
     atom   77 type  1   force =     0.00024927    0.00119380    0.00142865
     atom   78 type  1   force =     0.00030117   -0.00053623    0.00068906
     atom   79 type  1   force =    -0.00174402   -0.00122047   -0.00053808
     atom   80 type  1   force =    -0.00070238   -0.00085002   -0.00211104
     atom   81 type  1   force =     0.00146031   -0.00121992   -0.00160281
     atom   82 type  1   force =     0.00211112    0.00378884   -0.00594432
     atom   83 type  1   force =     0.00099659    0.00073092    0.00073094
     atom   84 type  1   force =    -0.00004599   -0.00033742   -0.00033742
     atom   85 type  1   force =    -0.00142865    0.00119380   -0.00024928
     atom   86 type  1   force =    -0.00068907   -0.00053625   -0.00030118
     atom   87 type  1   force =     0.00024238   -0.00092199   -0.00024238
     atom   88 type  1   force =    -0.00036888    0.00044419    0.00036887
     atom   89 type  1   force =     0.00073141    0.00210847    0.00103992
     atom   90 type  1   force =     0.00192589    0.00048596    0.00125766
     atom   91 type  1   force =     0.00161117    0.00733282    0.01516272
     atom   92 type  1   force =     0.00741931    0.00163939   -0.01516982
     atom   93 type  1   force =     0.00386060    0.00149848    0.00149849
     atom   94 type  1   force =    -0.00446896    0.00263285    0.00263286
     atom   95 type  1   force =     0.00053809   -0.00122046    0.00174400
     atom   96 type  1   force =     0.00211102   -0.00085001    0.00070237
     atom   97 type  1   force =    -0.00103993    0.00210846   -0.00073141
     atom   98 type  1   force =    -0.00125767    0.00048594   -0.00192589
     atom   99 type  1   force =     0.00281227   -0.00458290   -0.00281227
     atom  100 type  1   force =     0.00150607    0.00403998   -0.00150606
     atom  101 type  1   force =    -0.00679031   -0.00475542    0.00679033
     atom  102 type  1   force =    -0.00317305   -0.00337983    0.00317305
     atom  103 type  1   force =     0.00047058   -0.00050819   -0.00090467
     atom  104 type  1   force =     0.00055756   -0.00071208    0.00137610
     atom  105 type  1   force =    -0.00063211   -0.00040809   -0.00040811
     atom  106 type  1   force =     0.00153483   -0.00025336   -0.00025335
     atom  107 type  1   force =    -0.00315566    0.00054270   -0.00155056
     atom  108 type  1   force =     0.00320056    0.00159374   -0.00072107
     atom  109 type  1   force =    -0.00591705    0.00221161   -0.00380976
     atom  110 type  1   force =    -0.00179379    0.00145490    0.00120537
     atom  111 type  1   force =     0.00090467   -0.00050818   -0.00047060
     atom  112 type  1   force =    -0.00137612   -0.00071209   -0.00055756
     atom  113 type  1   force =     0.00016242   -0.00094792   -0.00016243
     atom  114 type  1   force =     0.00106718    0.00100489   -0.00106718
     atom  115 type  1   force =     0.00072521    0.00067898    0.00067899
     atom  116 type  1   force =    -0.00027873   -0.00017332   -0.00017332
     atom  117 type  1   force =    -0.00119380   -0.00024927    0.00142865
     atom  118 type  1   force =     0.00053624   -0.00030117    0.00068909
     atom  119 type  1   force =     0.00122046    0.00174402   -0.00053808
     atom  120 type  1   force =     0.00085003    0.00070236   -0.00211101
     atom  121 type  1   force =     0.00040811   -0.00040811    0.00063212
     atom  122 type  1   force =     0.00025336   -0.00025335   -0.00153483
     atom  123 type  1   force =    -0.00067899    0.00067899   -0.00072521
     atom  124 type  1   force =     0.00017332   -0.00017331    0.00027874
     atom  125 type  1   force =     0.00032937   -0.00032937   -0.00032936
     atom  126 type  1   force =    -0.00006949    0.00006949    0.00006949
     atom  127 type  1   force =    -0.00049859    0.00049859   -0.00110704
     atom  128 type  1   force =     0.00014192   -0.00014192    0.00143187
     atom  129 type  1   force =     0.00036053   -0.00036051   -0.00051744
     atom  130 type  1   force =    -0.00028269    0.00028271    0.00095728
     atom  131 type  1   force =     0.00155058    0.00054270    0.00315567
     atom  132 type  1   force =     0.00072106    0.00159373   -0.00320054
     atom  133 type  1   force =    -0.00142865   -0.00024928    0.00119380
     atom  134 type  1   force =    -0.00068908   -0.00030118   -0.00053623
     atom  135 type  1   force =     0.00110702    0.00049858    0.00049859
     atom  136 type  1   force =    -0.00143188   -0.00014193   -0.00014194
     atom  137 type  1   force =    -0.00005778   -0.00130949    0.00005778
     atom  138 type  1   force =     0.00050068    0.00100199   -0.00050067
     atom  139 type  1   force =    -0.00016378   -0.00057322    0.00053875
     atom  140 type  1   force =    -0.00052843   -0.00148024   -0.00123525
     atom  141 type  1   force =     0.00380977    0.00221162    0.00591703
     atom  142 type  1   force =    -0.00120536    0.00145490    0.00179379
     atom  143 type  1   force =     0.00053809    0.00174401   -0.00122045
     atom  144 type  1   force =     0.00211102    0.00070236   -0.00085001
     atom  145 type  1   force =     0.00051744   -0.00036053   -0.00036054
     atom  146 type  1   force =    -0.00095727    0.00028271    0.00028270
     atom  147 type  1   force =    -0.00053877   -0.00057322    0.00016379
     atom  148 type  1   force =     0.00123526   -0.00148025    0.00052844
     atom  149 type  1   force =    -0.00046886   -0.00006819    0.00046887
     atom  150 type  1   force =     0.00068498    0.00101954   -0.00068497
     atom  151 type  1   force =     0.00335468    0.00325424   -0.00335466
     atom  152 type  1   force =     0.00665663    0.00472457   -0.00665664
     atom  153 type  1   force =     0.00160281   -0.00146032   -0.00121994
     atom  154 type  1   force =     0.00594430   -0.00211112    0.00378886
     atom  155 type  1   force =    -0.00315567   -0.00155057    0.00054270
     atom  156 type  1   force =     0.00320055   -0.00072107    0.00159372
     atom  157 type  1   force =    -0.00172308    0.00025082    0.00025081
     atom  158 type  1   force =     0.00070099    0.00042725    0.00042724
     atom  159 type  1   force =    -0.00059082    0.00061444   -0.00137636
     atom  160 type  1   force =    -0.00045804    0.00061340    0.00077460
     atom  161 type  1   force =     0.00121994   -0.00146032   -0.00160280
     atom  162 type  1   force =    -0.00378885   -0.00211110   -0.00594431
     atom  163 type  1   force =    -0.00073092   -0.00099661    0.00073093
     atom  164 type  1   force =     0.00033740    0.00004598   -0.00033740
     atom  165 type  1   force =    -0.00119381    0.00142865   -0.00024926
     atom  166 type  1   force =     0.00053624    0.00068907   -0.00030117
     atom  167 type  1   force =     0.00092198   -0.00024239   -0.00024239
     atom  168 type  1   force =    -0.00044418    0.00036886    0.00036887
     atom  169 type  1   force =    -0.00210846   -0.00073142    0.00103992
     atom  170 type  1   force =    -0.00048595   -0.00192588    0.00125768
     atom  171 type  1   force =    -0.00054270   -0.00155057    0.00315568
     atom  172 type  1   force =    -0.00159373   -0.00072106   -0.00320055
     atom  173 type  1   force =     0.00024927    0.00142865    0.00119381
     atom  174 type  1   force =     0.00030116    0.00068907   -0.00053623
     atom  175 type  1   force =    -0.00049858   -0.00110703    0.00049858
     atom  176 type  1   force =     0.00014193    0.00143185   -0.00014191
     atom  177 type  1   force =     0.00130952    0.00005779    0.00005779
     atom  178 type  1   force =    -0.00100199   -0.00050067   -0.00050068
     atom  179 type  1   force =     0.00057323    0.00016378    0.00053877
     atom  180 type  1   force =     0.00148024    0.00052844   -0.00123526
     atom  181 type  1   force =    -0.00025083    0.00025080    0.00172309
     atom  182 type  1   force =    -0.00042724    0.00042725   -0.00070100
     atom  183 type  1   force =     0.00024240   -0.00024239   -0.00092199
     atom  184 type  1   force =    -0.00036886    0.00036888    0.00044417
     atom  185 type  1   force =    -0.00005777    0.00005780   -0.00130951
     atom  186 type  1   force =     0.00050068   -0.00050067    0.00100198
     atom  187 type  1   force =    -0.00002447    0.00002448    0.00002449
     atom  188 type  1   force =    -0.00031353    0.00031353    0.00031353
     atom  189 type  1   force =    -0.00012593    0.00012593   -0.00018619
     atom  190 type  1   force =     0.00068760   -0.00068760    0.00062813
     atom  191 type  1   force =     0.00137637    0.00061444    0.00059079
     atom  192 type  1   force =    -0.00077461    0.00061341    0.00045803
     atom  193 type  1   force =    -0.00103994   -0.00073141    0.00210846
     atom  194 type  1   force =    -0.00125767   -0.00192590    0.00048595
     atom  195 type  1   force =    -0.00053878    0.00016377   -0.00057324
     atom  196 type  1   force =     0.00123524    0.00052845   -0.00148024
     atom  197 type  1   force =     0.00018618    0.00012593    0.00012594
     atom  198 type  1   force =    -0.00062813   -0.00068760   -0.00068760
     atom  199 type  1   force =    -0.00118157   -0.00109085    0.00118156
     atom  200 type  1   force =    -0.00008399    0.00106574    0.00008400
     atom  201 type  1   force =    -0.01415420    0.00226554    0.01415420
     atom  202 type  1   force =     0.01679516   -0.03674773   -0.01679518
     atom  203 type  1   force =    -0.01516272   -0.00161117    0.00733282
     atom  204 type  1   force =     0.01516982   -0.00741932    0.00163939
     atom  205 type  1   force =    -0.00591703   -0.00380977    0.00221162
     atom  206 type  1   force =    -0.00179380    0.00120533    0.00145490
     atom  207 type  1   force =    -0.00059080   -0.00137638    0.00061443
     atom  208 type  1   force =    -0.00045801    0.00077462    0.00061340
     atom  209 type  1   force =     0.00137084    0.00083844    0.00083843
     atom  210 type  1   force =     0.00204346    0.00148415    0.00148414
     atom  211 type  1   force =    -0.00733281   -0.00161116    0.01516272
     atom  212 type  1   force =    -0.00163940   -0.00741932   -0.01516982
     atom  213 type  1   force =    -0.00149848   -0.00386060    0.00149848
     atom  214 type  1   force =    -0.00263286    0.00446894    0.00263286
     atom  215 type  1   force =     0.00122046   -0.00053809    0.00174400
     atom  216 type  1   force =     0.00085002   -0.00211101    0.00070238
     atom  217 type  1   force =    -0.00210845    0.00103993   -0.00073142
     atom  218 type  1   force =    -0.00048595    0.00125768   -0.00192588
     atom  219 type  1   force =     0.00458292   -0.00281227   -0.00281226
     atom  220 type  1   force =    -0.00403997   -0.00150609   -0.00150606
     atom  221 type  1   force =    -0.00221162   -0.00380975    0.00591703
     atom  222 type  1   force =    -0.00145490    0.00120535    0.00179377
     atom  223 type  1   force =    -0.00174400   -0.00053808   -0.00122045
     atom  224 type  1   force =    -0.00070236   -0.00211103   -0.00085000
     atom  225 type  1   force =     0.00036052   -0.00051744   -0.00036054
     atom  226 type  1   force =    -0.00028270    0.00095728    0.00028269
     atom  227 type  1   force =     0.00057323    0.00053877    0.00016379
     atom  228 type  1   force =     0.00148024   -0.00123526    0.00052845
     atom  229 type  1   force =     0.00006820    0.00046888    0.00046886
     atom  230 type  1   force =    -0.00101955   -0.00068497   -0.00068497
     atom  231 type  1   force =    -0.00061443   -0.00137637    0.00059079
     atom  232 type  1   force =    -0.00061340    0.00077462    0.00045802
     atom  233 type  1   force =     0.00073141    0.00103993    0.00210846
     atom  234 type  1   force =     0.00192589    0.00125768    0.00048595
     atom  235 type  1   force =    -0.00016376    0.00053878   -0.00057323
     atom  236 type  1   force =    -0.00052845   -0.00123524   -0.00148024
     atom  237 type  1   force =    -0.00012593   -0.00018618    0.00012593
     atom  238 type  1   force =     0.00068760    0.00062813   -0.00068760
     atom  239 type  1   force =     0.00109084    0.00118157    0.00118157
     atom  240 type  1   force =    -0.00106572    0.00008401    0.00008400
     atom  241 type  1   force =    -0.00083845    0.00083845   -0.00137083
     atom  242 type  1   force =    -0.00148414    0.00148413   -0.00204346
     atom  243 type  1   force =     0.00281226   -0.00281226   -0.00458291
     atom  244 type  1   force =     0.00150607   -0.00150607    0.00403998
     atom  245 type  1   force =    -0.00046888    0.00046889   -0.00006820
     atom  246 type  1   force =     0.00068498   -0.00068496    0.00101955
     atom  247 type  1   force =    -0.00118157    0.00118157   -0.00109084
     atom  248 type  1   force =    -0.00008399    0.00008399    0.00106573
     atom  249 type  1   force =     0.00081054   -0.00081055   -0.00081055
     atom  250 type  1   force =     0.00012476   -0.00012475   -0.00012476

     Total force =     0.709216     Total SCF correction =     0.000027


     Computing stress (Cartesian axis) and pressure

          total   stress  (Ry/bohr**3)                   (kbar)     P=  -57.67
  -0.00039202  -0.00008914  -0.00008914        -57.67    -13.11    -13.11
  -0.00008914  -0.00039202   0.00008914        -13.11    -57.67     13.11
  -0.00008914   0.00008914  -0.00039202        -13.11     13.11    -57.67


     BFGS Geometry Optimization

     number of scf cycles    =   1
     number of bfgs steps    =   0

     enthalpy new            =   -2862.3946716186 Ry

     new trust radius        =       0.4914917588 bohr
     new conv_thr            =            1.0E-10 Ry

     new unit-cell volume =   9139.07059 a.u.^3 (  1354.27052 Ang^3 )
     density =      3.68672 g/cm^3

CELL_PARAMETERS (alat= 33.51712756)
  -0.496213991   0.002228386   0.496213991
  -0.002228386   0.496213992   0.496213992
  -0.496213991   0.496213991   0.002228386

ATOMIC_POSITIONS (crystal)
N       -0.008466205  -0.008466206  -0.008466206
N        0.058466114   0.058466115   0.058466115
C        0.001095112   0.001095112   0.199909496
C        0.049932013   0.049932013   0.249224927
C       -0.000141880  -0.000141881   0.400547065
C        0.049899161   0.049899161   0.450290178
C        0.000097093   0.000097092   0.599702731
C        0.050140961   0.050140960   0.649461831
C        0.000067593   0.000067593   0.800777002
C        0.048903613   0.048903614   0.850094202
C        0.001095112   0.199909496   0.001095112
C        0.049932013   0.249224926   0.049932012
C       -0.000154405   0.200063225   0.200063225
C        0.049911153   0.250040061   0.250040061
C       -0.000028113   0.199997788   0.399974131
C        0.050036447   0.249921062   0.450045667
C       -0.000032146   0.199945007   0.599959351
C        0.050227408   0.249646620   0.649998678
C       -0.000281679   0.200185538   0.800719236
C        0.050280153   0.249277129   0.849817672
C       -0.000141880   0.400547065  -0.000141881
C        0.049899161   0.450290178   0.049899161
C       -0.000028113   0.399974131   0.199997789
C        0.050036447   0.450045668   0.249921062
C       -0.000043210   0.400018859   0.400018859
C        0.050030674   0.449954207   0.449954207
C       -0.000124221   0.400031697   0.600156605
C        0.050121527   0.449835446   0.649973573
C       -0.000224220   0.399996887   0.800356189
C        0.050025851   0.450046073   0.850060965
C        0.000097093   0.599702732   0.000097092
C        0.050140960   0.649461832   0.050140960
C       -0.000032145   0.599959351   0.199945007
C        0.050227408   0.649998677   0.249646621
C       -0.000124220   0.600156604   0.400031697
C        0.050121527   0.649973573   0.449835446
C       -0.000036442   0.600051409   0.600051409
C        0.050046409   0.649979087   0.649979086
C       -0.000040359   0.599958230   0.800077024
C        0.050027746   0.650018475   0.850008856
C        0.000067593   0.800777002   0.000067594
C        0.048903613   0.850094202   0.048903614
C       -0.000281679   0.800719236   0.200185539
C        0.050280152   0.849817672   0.249277130
C       -0.000224220   0.800356189   0.399996887
C        0.050025852   0.850060964   0.450046073
C       -0.000040359   0.800077024   0.599958230
C        0.050027747   0.850008856   0.650018476
C        0.000090930   0.799959100   0.799959100
C        0.050149527   0.849939033   0.849939032
C        0.199909496   0.001095112   0.001095113
C        0.249224926   0.049932013   0.049932012
C        0.200063225  -0.000154406   0.200063225
C        0.250040061   0.049911153   0.250040060
C        0.199997788  -0.000028111   0.399974130
C        0.249921064   0.050036446   0.450045668
C        0.199945008  -0.000032146   0.599959351
C        0.249646620   0.050227407   0.649998678
C        0.200185538  -0.000281679   0.800719235
C        0.249277130   0.050280152   0.849817671
C        0.200063225   0.200063225  -0.000154406
C        0.250040061   0.250040061   0.049911152
C        0.200006212   0.200006212   0.200006211
C        0.250021673   0.250021672   0.250021672
C        0.199971719   0.199971718   0.400018589
C        0.250029981   0.250029980   0.449906340
C        0.199970266   0.199970266   0.600073350
C        0.250001372   0.250001372   0.649978495
C        0.199884818   0.199884818   0.800204599
C        0.250133334   0.250133333   0.850023772
C        0.199997789   0.399974130  -0.000028112
C        0.249921063   0.450045667   0.050036446
C        0.199971718   0.400018589   0.199971718
C        0.250029981   0.449906339   0.250029980
C        0.200062153   0.399978363   0.399978364
C        0.249981342   0.450008317   0.450008316
C        0.199999570   0.400085679   0.599985556
C        0.250027572   0.450013546   0.649954457
C        0.200072393   0.399895499   0.800031674
C        0.249983333   0.449890700   0.850058579
C        0.199945007   0.599959352  -0.000032146
C        0.249646620   0.649998676   0.050227407
C        0.199970267   0.600073349   0.199970266
C        0.250001372   0.649978494   0.250001372
C        0.199999569   0.599985556   0.400085679
C        0.250027572   0.649954456   0.450013545
C        0.200013045   0.599972492   0.599972492
C        0.250008759   0.650013252   0.650013253
C        0.199946297   0.600115756   0.800010059
C        0.249965564   0.650109482   0.849919516
C        0.200185539   0.800719236  -0.000281679
C        0.249277130   0.849817672   0.050280152
C        0.199884817   0.800204599   0.199884817
C        0.250133334   0.850023772   0.250133333
C        0.200072392   0.800031674   0.399895500
C        0.249983333   0.850058578   0.449890700
C        0.199946298   0.800010058   0.600115756
C        0.249965565   0.849919515   0.650109481
C        0.199968922   0.799863267   0.799863267
C        0.249789597   0.850120535   0.850120535
C        0.400547065  -0.000141880  -0.000141881
C        0.450290178   0.049899161   0.049899161
C        0.399974131  -0.000028113   0.199997789
C        0.450045667   0.050036446   0.249921063
C        0.400018859  -0.000043211   0.400018860
C        0.449954208   0.050030674   0.449954207
C        0.400031697  -0.000124220   0.600156604
C        0.449835446   0.050121527   0.649973573
C        0.399996887  -0.000224220   0.800356189
C        0.450046074   0.050025852   0.850060964
C        0.399974130   0.199997789  -0.000028113
C        0.450045668   0.249921062   0.050036447
C        0.400018590   0.199971718   0.199971719
C        0.449906339   0.250029981   0.250029982
C        0.399978363   0.200062153   0.399978363
C        0.450008316   0.249981341   0.450008316
C        0.400085679   0.199999570   0.599985556
C        0.450013546   0.250027573   0.649954456
C        0.399895499   0.200072393   0.800031674
C        0.449890700   0.249983333   0.850058577
C        0.400018860   0.400018859  -0.000043212
C        0.449954207   0.449954208   0.050030675
C        0.399978363   0.399978363   0.200062153
C        0.450008316   0.450008316   0.249981342
C        0.399990173   0.399990173   0.399990173
C        0.450002073   0.450002073   0.450002073
C        0.399966971   0.399966971   0.600062780
C        0.450042721   0.450042720   0.649948811
C        0.399984561   0.399984562   0.799993926
C        0.450028560   0.450028561   0.849988308
C        0.400031697   0.600156605  -0.000124222
C        0.449835447   0.649973573   0.050121526
C        0.400085679   0.599985556   0.199999570
C        0.450013546   0.649954456   0.250027572
C        0.399966972   0.600062779   0.399966971
C        0.450042721   0.649948810   0.450042721
C        0.400042517   0.599960931   0.599960931
C        0.449940229   0.650029895   0.650029894
C        0.400038063   0.599994085   0.799971710
C        0.450023075   0.649903216   0.850008457
C        0.399996886   0.800356189  -0.000224219
C        0.450046073   0.850060964   0.050025851
C        0.399895500   0.800031675   0.200072392
C        0.449890701   0.850058578   0.249983332
C        0.399984562   0.799993925   0.399984562
C        0.450028561   0.849988309   0.450028561
C        0.400038063   0.799971710   0.599994085
C        0.450023076   0.850008457   0.649903215
C        0.400030012   0.799997966   0.799997965
C        0.449928709   0.850030419   0.850030418
C        0.599702732   0.000097092   0.000097091
C        0.649461832   0.050140960   0.050140960
C        0.599959351  -0.000032146   0.199945008
C        0.649998678   0.050227407   0.249646620
C        0.600156604  -0.000124221   0.400031697
C        0.649973573   0.050121526   0.449835447
C        0.600051409  -0.000036443   0.600051409
C        0.649979085   0.050046408   0.649979086
C        0.599958231  -0.000040360   0.800077024
C        0.650018475   0.050027746   0.850008856
C        0.599959351   0.199945008  -0.000032146
C        0.649998677   0.249646621   0.050227408
C        0.600073350   0.199970266   0.199970265
C        0.649978495   0.250001372   0.250001372
C        0.599985557   0.199999570   0.400085679
C        0.649954457   0.250027572   0.450013545
C        0.599972492   0.200013044   0.599972492
C        0.650013253   0.250008758   0.650013252
C        0.600115756   0.199946297   0.800010058
C        0.650109482   0.249965565   0.849919515
C        0.600156605   0.400031697  -0.000124222
C        0.649973573   0.449835447   0.050121527
C        0.599985556   0.400085680   0.199999570
C        0.649954457   0.450013545   0.250027572
C        0.600062780   0.399966971   0.399966971
C        0.649948811   0.450042721   0.450042719
C        0.599960930   0.400042518   0.599960930
C        0.650029894   0.449940229   0.650029895
C        0.599994085   0.400038064   0.799971709
C        0.649903216   0.450023075   0.850008457
C        0.600051410   0.600051408  -0.000036443
C        0.649979085   0.649979086   0.050046409
C        0.599972492   0.599972492   0.200013044
C        0.650013251   0.650013253   0.250008759
C        0.599960929   0.599960931   0.400042518
C        0.650029894   0.650029895   0.449940229
C        0.600000730   0.600000731   0.600000730
C        0.650009354   0.650009354   0.650009354
C        0.599994445   0.599994445   0.800013069
C        0.650018740   0.650018741   0.849940230
C        0.599958230   0.800077023  -0.000040359
C        0.650018475   0.850008856   0.050027747
C        0.600115756   0.800010058   0.199946298
C        0.650109482   0.849919515   0.249965565
C        0.599994086   0.799971708   0.400038064
C        0.649903216   0.850008457   0.450023076
C        0.599994446   0.800013070   0.599994445
C        0.650018741   0.849940230   0.650018741
C        0.600103051   0.799967454   0.799967454
C        0.649973215   0.850031797   0.850031797
C        0.800777002   0.000067594   0.000067593
C        0.850094202   0.048903613   0.048903614
C        0.800719236  -0.000281679   0.200185539
C        0.849817672   0.050280152   0.249277130
C        0.800356189  -0.000224219   0.399996886
C        0.850060965   0.050025850   0.450046073
C        0.800077024  -0.000040360   0.599958230
C        0.850008855   0.050027747   0.650018475
C        0.799959100   0.000090930   0.799959100
C        0.849939032   0.050149528   0.849939033
C        0.800719235   0.200185539  -0.000281679
C        0.849817672   0.249277130   0.050280152
C        0.800204599   0.199884817   0.199884817
C        0.850023772   0.250133333   0.250133333
C        0.800031674   0.200072392   0.399895500
C        0.850058578   0.249983333   0.449890700
C        0.800010057   0.199946298   0.600115756
C        0.849919515   0.249965565   0.650109482
C        0.799863267   0.199968923   0.799863266
C        0.850120535   0.249789597   0.850120534
C        0.800356188   0.399996887  -0.000224219
C        0.850060963   0.450046073   0.050025852
C        0.800031674   0.399895500   0.200072392
C        0.850058579   0.449890701   0.249983332
C        0.799993925   0.399984561   0.399984562
C        0.849988308   0.450028560   0.450028561
C        0.799971710   0.400038064   0.599994085
C        0.850008457   0.450023076   0.649903215
C        0.799997965   0.400030013   0.799997966
C        0.850030419   0.449928709   0.850030419
C        0.800077023   0.599958230  -0.000040360
C        0.850008855   0.650018476   0.050027747
C        0.800010058   0.600115756   0.199946298
C        0.849919515   0.650109482   0.249965565
C        0.799971708   0.599994086   0.400038063
C        0.850008457   0.649903216   0.450023076
C        0.800013069   0.599994445   0.599994446
C        0.849940230   0.650018741   0.650018741
C        0.799967454   0.600103051   0.799967454
C        0.850031796   0.649973216   0.850031797
C        0.799959101   0.799959101   0.000090930
C        0.849939033   0.849939032   0.050149527
C        0.799863267   0.799863267   0.199968923
C        0.850120535   0.850120535   0.249789597
C        0.799997965   0.799997966   0.400030014
C        0.850030418   0.850030419   0.449928708
C        0.799967454   0.799967454   0.600103051
C        0.850031796   0.850031797   0.649973215
C        0.799975817   0.799975817   0.799975817
C        0.849996278   0.849996278   0.849996278



     Writing output data file n2.save
     NEW-OLD atomic charge density approx. for the potential
     extrapolated charge  971.98931, renormalised to 1002.00000

     total cpu time spent up to now is      256.6 secs

     per-process dynamical memory:    91.4 Mb

     Self-consistent Calculation

     iteration #  1     ecut=    50.00 Ry     beta=0.70
     Davidson diagonalization with overlap
     ethr =  1.00E-06,  avg # of iterations = 17.0

     total cpu time spent up to now is      285.8 secs

     total energy              =   -2862.52849787 Ry
     Harris-Foulkes estimate   =   -2842.04599231 Ry
     estimated scf accuracy    <       0.54035382 Ry

     iteration #  2     ecut=    50.00 Ry     beta=0.70
     Davidson diagonalization with overlap
     ethr =  5.39E-05,  avg # of iterations =  8.0

     total cpu time spent up to now is      300.1 secs

     total energy              =   -2862.69757435 Ry
     Harris-Foulkes estimate   =   -2862.70729185 Ry
     estimated scf accuracy    <       0.05793169 Ry

     iteration #  3     ecut=    50.00 Ry     beta=0.70
     Davidson diagonalization with overlap
     ethr =  5.78E-06,  avg # of iterations =  7.0

     total cpu time spent up to now is      307.2 secs

     total energy              =   -2862.69243140 Ry
     Harris-Foulkes estimate   =   -2862.69923437 Ry
     estimated scf accuracy    <       0.02420133 Ry

     iteration #  4     ecut=    50.00 Ry     beta=0.70
     Davidson diagonalization with overlap
     ethr =  2.42E-06,  avg # of iterations =  9.0

     total cpu time spent up to now is      317.8 secs

     total energy              =   -2862.69369859 Ry
     Harris-Foulkes estimate   =   -2862.69466047 Ry
     estimated scf accuracy    <       0.00443724 Ry

     iteration #  5     ecut=    50.00 Ry     beta=0.70
     Davidson diagonalization with overlap
     ethr =  4.43E-07,  avg # of iterations =  7.0

     total cpu time spent up to now is      326.1 secs

     total energy              =   -2862.69365560 Ry
     Harris-Foulkes estimate   =   -2862.69399495 Ry
     estimated scf accuracy    <       0.00114178 Ry

     iteration #  6     ecut=    50.00 Ry     beta=0.70
     Davidson diagonalization with overlap
     ethr =  1.14E-07,  avg # of iterations =  7.0

     total cpu time spent up to now is      336.0 secs

     total energy              =   -2862.69377193 Ry
     Harris-Foulkes estimate   =   -2862.69381154 Ry
     estimated scf accuracy    <       0.00016375 Ry

     iteration #  7     ecut=    50.00 Ry     beta=0.70
     Davidson diagonalization with overlap
     ethr =  1.63E-08,  avg # of iterations =  8.0

     total cpu time spent up to now is      344.8 secs

     total energy              =   -2862.69376601 Ry
     Harris-Foulkes estimate   =   -2862.69378271 Ry
     estimated scf accuracy    <       0.00004567 Ry

     iteration #  8     ecut=    50.00 Ry     beta=0.70
     Davidson diagonalization with overlap
     ethr =  4.56E-09,  avg # of iterations =  7.0

     total cpu time spent up to now is      355.7 secs

     total energy              =   -2862.69377354 Ry
     Harris-Foulkes estimate   =   -2862.69377561 Ry
     estimated scf accuracy    <       0.00000765 Ry

     iteration #  9     ecut=    50.00 Ry     beta=0.70
     Davidson diagonalization with overlap
     ethr =  7.63E-10,  avg # of iterations =  8.0

     total cpu time spent up to now is      366.8 secs

     total energy              =   -2862.69377388 Ry
     Harris-Foulkes estimate   =   -2862.69377448 Ry
     estimated scf accuracy    <       0.00000196 Ry

     iteration # 10     ecut=    50.00 Ry     beta=0.70
     Davidson diagonalization with overlap
     ethr =  1.95E-10,  avg # of iterations = 10.0

     total cpu time spent up to now is      380.1 secs

     total energy              =   -2862.69377407 Ry
     Harris-Foulkes estimate   =   -2862.69377413 Ry
     estimated scf accuracy    <       0.00000023 Ry

     iteration # 11     ecut=    50.00 Ry     beta=0.70
     Davidson diagonalization with overlap
     ethr =  2.34E-11,  avg # of iterations =  9.0

     total cpu time spent up to now is      391.5 secs

     total energy              =   -2862.69377408 Ry
     Harris-Foulkes estimate   =   -2862.69377409 Ry
     estimated scf accuracy    <       0.00000004 Ry

     iteration # 12     ecut=    50.00 Ry     beta=0.70
     Davidson diagonalization with overlap
     ethr =  4.09E-12,  avg # of iterations =  8.0

     total cpu time spent up to now is      403.3 secs

     total energy              =   -2862.69377408 Ry
     Harris-Foulkes estimate   =   -2862.69377409 Ry
     estimated scf accuracy    <          4.5E-09 Ry

     iteration # 13     ecut=    50.00 Ry     beta=0.70
     Davidson diagonalization with overlap
     ethr =  4.53E-13,  avg # of iterations =  7.0

     total cpu time spent up to now is      414.4 secs

     total energy              =   -2862.69377408 Ry
     Harris-Foulkes estimate   =   -2862.69377408 Ry
     estimated scf accuracy    <          4.0E-10 Ry

     iteration # 14     ecut=    50.00 Ry     beta=0.70
     Davidson diagonalization with overlap
     ethr =  1.00E-13,  avg # of iterations =  8.0

     total cpu time spent up to now is      423.2 secs

     End of self-consistent calculation

          k = 0.0000 0.0000 0.0000 ( 56233 PWs)   bands (ev):

    -8.0184  -7.2968  -7.0046  -6.7819  -6.7819  -6.7731  -6.7708  -6.7656
    -6.7656  -6.5254  -6.5041  -6.4036  -6.4036  -6.3935  -6.3935  -5.5193
    -5.2773  -4.9385  -4.9385  -4.9315  -4.9315  -4.9056  -4.9056  -4.9004
    -4.9004  -4.9001  -4.8976  -4.4688  -4.2199  -3.8799  -3.8799  -3.8416
    -3.8416  -3.8401  -3.8401  -3.8310  -3.8310  -3.8258  -3.8206  -3.8168
    -3.8150  -3.8150  -3.8112  -3.8112  -3.8080  -3.8058  -3.8006  -3.8006
    -3.7915  -3.7877  -3.7877  -3.5871  -3.5373  -3.5258  -3.4887  -3.4887
    -3.4883  -3.4806  -3.4806  -2.4291  -2.0788  -2.0387  -2.0387  -1.9942
    -1.9942  -1.7848  -1.6786  -1.3767  -1.3767  -1.3683  -1.3683  -1.3533
    -1.3387  -1.3387  -1.3176  -1.3176  -1.2941  -1.2755  -1.2692  -1.2692
    -1.2674  -1.2625  -1.2625  -1.2420  -1.2420  -1.2374  -1.2296  -1.2296
    -1.2183  -1.0163  -0.8242  -0.8242  -0.8193  -0.7983  -0.7983  -0.7690
    -0.7621  -0.7621  -0.7608  -0.7569  -0.7569  -0.7335  -0.7304  -0.7304
    -0.7134  -0.7119  -0.7119  -0.7085  -0.7016  -0.6990  -0.6990  -0.6866
    -0.6866   0.6436   1.0999   1.1207   1.1207   1.1409   1.1409   1.1637
     1.1637   1.1896   1.2126   1.2126   1.2246   1.3302   1.4537   1.4537
     1.5084   1.5222   1.5222   1.5533   1.5538   1.5651   1.5651   1.5657
     1.5657   1.5666   1.5666   1.5764   1.5764   1.5793   1.5807   1.5807
     1.5826   1.5839   1.5914   1.5914   1.6438   1.6780   1.7385   1.7385
     1.7436   1.7522   1.7522   1.7648   1.7648   1.7871   1.7871   1.8040
     1.8111   2.3139   2.3444   2.3600   2.3765   2.3765   2.3900   2.3900
     2.4161   3.3656   3.6390   3.6390   3.6463   3.6463   3.7012   3.7509
     3.7625   3.7640   3.7640   3.7690   3.7690   3.7786   3.7786   3.8022
     3.8022   3.8059   3.8101   3.8228   3.8280   3.8318   3.8318   3.8368
     3.8368   4.4372   4.4372   4.4520   4.5429   4.5436   4.5436   4.8588
     4.8588   4.8696   4.8696   4.8728   4.9286   4.9800   4.9942   4.9942
     5.0132   5.0132   5.0175   5.0289   5.0398   5.0515   5.0515   5.0606
     5.0606   5.0684   5.0707   5.0707   5.0922   5.0924   5.0924   5.1132
     5.1132   5.1318   5.1318   5.1456   5.1513   5.1531   5.1605   5.1605
     5.1612   5.1612   5.1891   5.4060   5.4060   5.4399   5.4456   5.4456
     5.4768   5.4768   5.4775   5.4832   5.4942   5.4942   5.5067   5.5076
     5.5076   5.5114   5.5114   5.5120   5.5140   5.5140   5.5262   5.5359
     5.5380   5.5380   5.6199   6.7879   6.7879   6.8603   6.9254   6.9254
     6.9573   7.0033   7.0222   7.0222   7.0231   7.0231   7.0372   7.2179
     7.2179   7.2980   7.2980   7.4320   7.4479   7.4662   7.4845   7.4845
     7.4848   7.4887   7.5006   7.5006   7.5009   7.5009   7.5049   7.5084
     7.5084   7.5149   7.5149   7.5183   7.5222   7.5260   7.5339   7.5339
     7.5473   7.5473   7.5537   7.5546   7.5546   7.5549   7.5549   7.5606
     7.5761   7.5761   7.5862   7.5862   7.5910   7.6012   7.6039   7.6039
     7.6056   7.6260   7.6285   7.6285   7.6335   7.6335   7.6927   7.8662
     7.8662   7.8663   7.8663   7.8713   7.8792   7.9067   7.9067   7.9302
     7.9302   7.9303   7.9307   7.9307   7.9373   7.9414   7.9414   7.9564
     7.9688   7.9688   8.0224   8.0237   8.0291   8.0291   8.0510   8.1733
     8.1733   8.1846   8.1906   8.1906   8.2286   8.2286   8.2698   8.2738
     8.2738   8.2786   8.2790   8.9054   8.9054   8.9949   9.0714   9.1023
     9.1439   9.1502   9.1502   9.2073   9.2073   9.2294   9.2620   9.2620
     9.2952   9.3030   9.3100   9.3100   9.3142   9.3142   9.3270   9.3270
     9.3330   9.3349   9.3349   9.3453   9.3505   9.3514   9.3514   9.3528
     9.3607   9.3607   9.4281   9.4862   9.5098   9.5098   9.5122   9.5122
     9.5244   9.5355   9.5355   9.5388   9.5388   9.5497   9.5533   9.5533
     9.5700   9.5700   9.5964   9.6086   9.6320   9.6320   9.6330   9.6375
     9.6387   9.6387   9.7609  10.0436  10.0436  10.0908  10.0908  10.1063
    10.1216  10.1216  10.1489  10.1489  10.1607  10.1664  10.1724  10.1724
    10.1739  10.1739  10.1746  10.1976  10.2118  10.2118  10.2122  10.2258
    10.2258  10.2306  10.2969  10.7062  10.7224  10.7224  10.7571  10.7571
    10.8003  10.8003  10.8235  10.8235  10.8384  10.8426  10.8701  11.0122
    11.0293  11.0293  11.0731  11.0731  11.1768  11.3469  11.3469  11.3935
    11.3935  11.4145  11.4145  11.4223  11.4300  11.4300  11.4300  11.4397
    11.4397  11.4485  11.5327  11.5327  11.6611  12.0205  12.0205  12.0754
    12.0754  12.0930  12.1182  12.1182  12.1217  12.1345  12.1398  12.1398
    12.2614  12.7003  12.7003  12.7483  12.7577  12.7577  12.7859  12.7923
    12.7923  12.7940  12.7940  12.8130  12.8351  12.8351  12.8392  12.8392
    13.1210  14.1750  14.1750  14.2450  15.8027  18.3570  18.4613  18.4613
    18.5217  18.5217  18.5948  18.9705  19.0398  19.0398  19.0565  19.0565
    19.1558  19.5792  19.5809  19.5809  19.6026  19.6171  19.6310  19.6310
    19.7602  19.7602  19.7783  19.7785  19.7785  19.8763  19.9722  19.9722
    20.2510  20.3488  20.3600  20.3600  20.3953  20.4112  20.4112  20.4182
    20.4182  20.4306  20.4479  20.4580  20.4580  20.4946  20.4946  20.4995
    20.4995  20.5055  20.5178  20.5254  20.5292  20.5338  20.5338  20.5367
    20.5367  20.5682  20.5682  20.6530  20.6530  20.8552  21.3575  21.5399
    21.5399  21.5400  21.5400  21.5454  21.5575  21.5916  21.5916  21.5941
    21.5975  21.5975  21.6121  21.6196  21.6196  21.6382  21.6382  21.6530
    21.6677  21.6748  21.6748  21.6860  21.6860  21.7028  21.7054  21.7054
    21.7071  21.7263  21.7263  21.7559  21.7559  21.7747  21.7747  21.7787
    21.7787  21.7837  21.7906  21.8942  21.8942  22.0292  22.2236  22.2432

[...]
     atom   23 type  1   force =    -0.00013875   -0.00029423   -0.00003225
     atom   24 type  1   force =    -0.00045478    0.00024236    0.00004130
     atom   25 type  1   force =     0.00000523   -0.00009570   -0.00000523
     atom   26 type  1   force =    -0.00015366    0.00031267    0.00015366
     atom   27 type  1   force =     0.00007822   -0.00020998   -0.00009922
     atom   28 type  1   force =    -0.00010226    0.00022863    0.00010901
     atom   29 type  1   force =     0.00014667   -0.00047825   -0.00028693
     atom   30 type  1   force =     0.00003541    0.00022433    0.00024469
     atom   31 type  1   force =     0.00014874   -0.00006079   -0.00006080
     atom   32 type  1   force =    -0.00028547   -0.00006116   -0.00006116
     atom   33 type  1   force =    -0.00002946   -0.00026203   -0.00026002
     atom   34 type  1   force =    -0.00014354    0.00042275    0.00025828
     atom   35 type  1   force =     0.00009921   -0.00020998   -0.00007822
     atom   36 type  1   force =    -0.00010901    0.00022863    0.00010226
     atom   37 type  1   force =     0.00013152   -0.00029023   -0.00013151
     atom   38 type  1   force =    -0.00002598    0.00013093    0.00002598
     atom   39 type  1   force =     0.00042869   -0.00031899   -0.00007536
     atom   40 type  1   force =     0.00013002    0.00022624   -0.00002992
     atom   41 type  1   force =    -0.00000709   -0.00037519   -0.00037519
     atom   42 type  1   force =    -0.00043609   -0.00014387   -0.00014388
     atom   43 type  1   force =     0.00023960   -0.00021800    0.00001568
     atom   44 type  1   force =     0.00004978    0.00017120    0.00016465
     atom   45 type  1   force =     0.00028692   -0.00047825   -0.00014666
     atom   46 type  1   force =    -0.00024469    0.00022433   -0.00003541
     atom   47 type  1   force =     0.00007535   -0.00031899   -0.00042868
     atom   48 type  1   force =     0.00002993    0.00022624   -0.00013002
     atom   49 type  1   force =     0.00018519    0.00019707   -0.00018520
     atom   50 type  1   force =    -0.00036591    0.00053278    0.00036592
     atom   51 type  1   force =    -0.00014551   -0.00033156    0.00014551
     atom   52 type  1   force =    -0.00053461    0.00002108    0.00053462
     atom   53 type  1   force =     0.00058081   -0.00041859   -0.00041860
     atom   54 type  1   force =     0.00023354    0.00014027    0.00014027
     atom   55 type  1   force =     0.00029423   -0.00003226    0.00013875
     atom   56 type  1   force =    -0.00024235    0.00004131    0.00045478
     atom   57 type  1   force =     0.00026202   -0.00026002    0.00002947
     atom   58 type  1   force =    -0.00042275    0.00025828    0.00014354
     atom   59 type  1   force =     0.00021799    0.00001569   -0.00023961
     atom   60 type  1   force =    -0.00017119    0.00016465   -0.00004978
     atom   61 type  1   force =     0.00041859   -0.00041860   -0.00058081
     atom   62 type  1   force =    -0.00014027    0.00014027   -0.00023353
     atom   63 type  1   force =     0.00002268   -0.00002269   -0.00002269
     atom   64 type  1   force =    -0.00077318    0.00077319    0.00077319
     atom   65 type  1   force =    -0.00050263    0.00050263    0.00035804
     atom   66 type  1   force =    -0.00066153    0.00066154    0.00053686
     atom   67 type  1   force =    -0.00003954    0.00003954    0.00017003
     atom   68 type  1   force =    -0.00009903    0.00009904    0.00044263
     atom   69 type  1   force =     0.00039294   -0.00039294   -0.00008300
     atom   70 type  1   force =    -0.00001251    0.00001253   -0.00013112
     atom   71 type  1   force =    -0.00013876   -0.00003226   -0.00029423
     atom   72 type  1   force =    -0.00045478    0.00004130    0.00024236
     atom   73 type  1   force =    -0.00035804    0.00050262    0.00050263
     atom   74 type  1   force =    -0.00053686    0.00066154    0.00066153
     atom   75 type  1   force =    -0.00022897    0.00026931    0.00022897
     atom   76 type  1   force =    -0.00035379    0.00042460    0.00035379
     atom   77 type  1   force =     0.00004263   -0.00009281    0.00013183
     atom   78 type  1   force =    -0.00030336    0.00023614    0.00004518
     atom   79 type  1   force =    -0.00014525   -0.00013859   -0.00019678
     atom   80 type  1   force =    -0.00035401    0.00032906   -0.00005113
     atom   81 type  1   force =    -0.00002946   -0.00026002   -0.00026202
     atom   82 type  1   force =    -0.00014354    0.00025828    0.00042275
     atom   83 type  1   force =    -0.00017003    0.00003954    0.00003954
     atom   84 type  1   force =    -0.00044264    0.00009904    0.00009903
     atom   85 type  1   force =    -0.00013183   -0.00009281   -0.00004263
     atom   86 type  1   force =    -0.00004518    0.00023614    0.00030336
     atom   87 type  1   force =     0.00014856   -0.00025301   -0.00014856
     atom   88 type  1   force =     0.00006117    0.00008072   -0.00006117
     atom   89 type  1   force =     0.00031821    0.00005417   -0.00032558
     atom   90 type  1   force =     0.00012481    0.00018826    0.00012585
     atom   91 type  1   force =     0.00023960    0.00001568   -0.00021800
     atom   92 type  1   force =     0.00004978    0.00016465    0.00017119
     atom   93 type  1   force =     0.00008300   -0.00039294   -0.00039294
     atom   94 type  1   force =     0.00013112    0.00001251    0.00001251
     atom   95 type  1   force =     0.00019678   -0.00013859    0.00014525
     atom   96 type  1   force =     0.00005113    0.00032906    0.00035401
     atom   97 type  1   force =     0.00032558    0.00005417   -0.00031821
     atom   98 type  1   force =    -0.00012585    0.00018826   -0.00012481
     atom   99 type  1   force =     0.00006714    0.00010675   -0.00006713
     atom  100 type  1   force =    -0.00030379    0.00001441    0.00030379
     atom  101 type  1   force =     0.00001178   -0.00027566   -0.00001177
     atom  102 type  1   force =    -0.00004730    0.00018576    0.00004731
     atom  103 type  1   force =     0.00029423    0.00013875   -0.00003226
     atom  104 type  1   force =    -0.00024235    0.00045479    0.00004130
     atom  105 type  1   force =     0.00009570   -0.00000525   -0.00000523
     atom  106 type  1   force =    -0.00031266    0.00015367    0.00015367
     atom  107 type  1   force =     0.00020998   -0.00007822   -0.00009922
     atom  108 type  1   force =    -0.00022863    0.00010226    0.00010901
     atom  109 type  1   force =     0.00047824   -0.00014666   -0.00028693
     atom  110 type  1   force =    -0.00022433   -0.00003540    0.00024469
     atom  111 type  1   force =     0.00003225    0.00013876   -0.00029423
     atom  112 type  1   force =    -0.00004130    0.00045478    0.00024236
     atom  113 type  1   force =    -0.00050262    0.00035804    0.00050262
     atom  114 type  1   force =    -0.00066154    0.00053686    0.00066154
     atom  115 type  1   force =    -0.00026931    0.00022897    0.00022897
     atom  116 type  1   force =    -0.00042460    0.00035379    0.00035379
     atom  117 type  1   force =     0.00009280   -0.00004264    0.00013183
     atom  118 type  1   force =    -0.00023614    0.00030337    0.00004517
     atom  119 type  1   force =     0.00013858    0.00014524   -0.00019677
     atom  120 type  1   force =    -0.00032905    0.00035402   -0.00005113
     atom  121 type  1   force =     0.00000523   -0.00000523   -0.00009570
     atom  122 type  1   force =    -0.00015366    0.00015366    0.00031267
     atom  123 type  1   force =    -0.00022898    0.00022897    0.00026931
     atom  124 type  1   force =    -0.00035379    0.00035380    0.00042461
     atom  125 type  1   force =     0.00001066   -0.00001066   -0.00001065
     atom  126 type  1   force =    -0.00012725    0.00012726    0.00012726
     atom  127 type  1   force =     0.00004557   -0.00004556   -0.00014228
     atom  128 type  1   force =    -0.00017147    0.00017147    0.00008760
     atom  129 type  1   force =    -0.00009026    0.00009026   -0.00005777
     atom  130 type  1   force =    -0.00017043    0.00017044    0.00027532
     atom  131 type  1   force =     0.00009921   -0.00007822   -0.00020997
     atom  132 type  1   force =    -0.00010901    0.00010226    0.00022863
     atom  133 type  1   force =    -0.00013183   -0.00004264   -0.00009280
     atom  134 type  1   force =    -0.00004519    0.00030336    0.00023613
     atom  135 type  1   force =     0.00014229   -0.00004557   -0.00004556
     atom  136 type  1   force =    -0.00008760    0.00017148    0.00017147
     atom  137 type  1   force =     0.00014448   -0.00007171   -0.00014447
     atom  138 type  1   force =    -0.00006610    0.00017201    0.00006609
     atom  139 type  1   force =     0.00027391   -0.00002491   -0.00021225
     atom  140 type  1   force =    -0.00005234   -0.00010099    0.00012283
     atom  141 type  1   force =     0.00028693   -0.00014666   -0.00047825
     atom  142 type  1   force =    -0.00024469   -0.00003541    0.00022432
     atom  143 type  1   force =     0.00019678    0.00014525   -0.00013859
     atom  144 type  1   force =     0.00005113    0.00035401    0.00032906
     atom  145 type  1   force =     0.00005777    0.00009025    0.00009025
     atom  146 type  1   force =    -0.00027533    0.00017045    0.00017044
     atom  147 type  1   force =     0.00021225   -0.00002492   -0.00027390
     atom  148 type  1   force =    -0.00012283   -0.00010099    0.00005235
     atom  149 type  1   force =     0.00010241   -0.00041966   -0.00010241
     atom  150 type  1   force =     0.00003222   -0.00015729   -0.00003222
     atom  151 type  1   force =     0.00006079   -0.00014875   -0.00006079
     atom  152 type  1   force =     0.00006116    0.00028547   -0.00006116
     atom  153 type  1   force =     0.00026202    0.00002946   -0.00026001
     atom  154 type  1   force =    -0.00042275    0.00014354    0.00025828
     atom  155 type  1   force =     0.00020999   -0.00009922   -0.00007822
     atom  156 type  1   force =    -0.00022863    0.00010901    0.00010226
     atom  157 type  1   force =     0.00029023   -0.00013152   -0.00013152
     atom  158 type  1   force =    -0.00013093    0.00002599    0.00002599
     atom  159 type  1   force =     0.00031899   -0.00042869   -0.00007536
     atom  160 type  1   force =    -0.00022624   -0.00013001   -0.00002992
     atom  161 type  1   force =     0.00026001    0.00002946   -0.00026202
     atom  162 type  1   force =    -0.00025828    0.00014354    0.00042275
     atom  163 type  1   force =    -0.00003954    0.00017003    0.00003954
     atom  164 type  1   force =    -0.00009904    0.00044264    0.00009904
     atom  165 type  1   force =     0.00009281    0.00013183   -0.00004264
     atom  166 type  1   force =    -0.00023614    0.00004518    0.00030337
     atom  167 type  1   force =     0.00025302   -0.00014857   -0.00014857
     atom  168 type  1   force =    -0.00008071   -0.00006117   -0.00006116
     atom  169 type  1   force =    -0.00005418   -0.00031822   -0.00032558
     atom  170 type  1   force =    -0.00018826   -0.00012481    0.00012586
     atom  171 type  1   force =     0.00007822   -0.00009921   -0.00020998
     atom  172 type  1   force =    -0.00010226    0.00010901    0.00022863
     atom  173 type  1   force =     0.00004264    0.00013183   -0.00009280
     atom  174 type  1   force =    -0.00030336    0.00004519    0.00023614
     atom  175 type  1   force =     0.00004557   -0.00014229   -0.00004557
     atom  176 type  1   force =    -0.00017147    0.00008760    0.00017147
     atom  177 type  1   force =     0.00007171   -0.00014448   -0.00014448
     atom  178 type  1   force =    -0.00017202    0.00006609    0.00006609
     atom  179 type  1   force =     0.00002491   -0.00027390   -0.00021224
     atom  180 type  1   force =     0.00010099    0.00005235    0.00012282
     atom  181 type  1   force =     0.00013152   -0.00013152   -0.00029024
     atom  182 type  1   force =    -0.00002599    0.00002599    0.00013093
     atom  183 type  1   force =     0.00014857   -0.00014857   -0.00025301
     atom  184 type  1   force =     0.00006118   -0.00006116    0.00008072
     atom  185 type  1   force =     0.00014448   -0.00014447   -0.00007171
     atom  186 type  1   force =    -0.00006610    0.00006609    0.00017201
     atom  187 type  1   force =     0.00010733   -0.00010733   -0.00010733
     atom  188 type  1   force =    -0.00003133    0.00003133    0.00003133
     atom  189 type  1   force =     0.00032617   -0.00032617   -0.00040533
     atom  190 type  1   force =     0.00020724   -0.00020723   -0.00022628
     atom  191 type  1   force =     0.00007535   -0.00042869   -0.00031899
     atom  192 type  1   force =     0.00002993   -0.00013002    0.00022624
     atom  193 type  1   force =     0.00032557   -0.00031821    0.00005416
     atom  194 type  1   force =    -0.00012585   -0.00012481    0.00018826
     atom  195 type  1   force =     0.00021226   -0.00027392   -0.00002492
     atom  196 type  1   force =    -0.00012284    0.00005236   -0.00010098
     atom  197 type  1   force =     0.00040534   -0.00032618   -0.00032618
     atom  198 type  1   force =     0.00022627   -0.00020724   -0.00020724
     atom  199 type  1   force =     0.00062256   -0.00052020   -0.00062257
     atom  200 type  1   force =     0.00045956   -0.00030917   -0.00045955
     atom  201 type  1   force =     0.00037518    0.00000709   -0.00037518
     atom  202 type  1   force =     0.00014388    0.00043609   -0.00014388
     atom  203 type  1   force =     0.00021800   -0.00023961    0.00001568
     atom  204 type  1   force =    -0.00017119   -0.00004979    0.00016465
     atom  205 type  1   force =     0.00047824   -0.00028692   -0.00014667
     atom  206 type  1   force =    -0.00022433    0.00024469   -0.00003541
     atom  207 type  1   force =     0.00031899   -0.00007536   -0.00042869
     atom  208 type  1   force =    -0.00022624   -0.00002992   -0.00013002
     atom  209 type  1   force =    -0.00019707   -0.00018520   -0.00018520
     atom  210 type  1   force =    -0.00053277    0.00036592    0.00036592
     atom  211 type  1   force =    -0.00001568   -0.00023961   -0.00021800
     atom  212 type  1   force =    -0.00016465   -0.00004979    0.00017119
     atom  213 type  1   force =     0.00039294   -0.00008299   -0.00039294
     atom  214 type  1   force =    -0.00001251   -0.00013112    0.00001252
     atom  215 type  1   force =     0.00013859   -0.00019678    0.00014525
     atom  216 type  1   force =    -0.00032905   -0.00005113    0.00035402
     atom  217 type  1   force =    -0.00005418   -0.00032557   -0.00031821
     atom  218 type  1   force =    -0.00018826    0.00012585   -0.00012482
     atom  219 type  1   force =    -0.00010675   -0.00006714   -0.00006714
     atom  220 type  1   force =    -0.00001442    0.00030379    0.00030378
     atom  221 type  1   force =     0.00014666   -0.00028692   -0.00047825
     atom  222 type  1   force =     0.00003541    0.00024469    0.00022432
     atom  223 type  1   force =    -0.00014525   -0.00019679   -0.00013859
     atom  224 type  1   force =    -0.00035400   -0.00005112    0.00032905
     atom  225 type  1   force =    -0.00009026   -0.00005778    0.00009026
     atom  226 type  1   force =    -0.00017044    0.00027533    0.00017044
     atom  227 type  1   force =     0.00002492   -0.00021224   -0.00027390
     atom  228 type  1   force =     0.00010099    0.00012282    0.00005235
     atom  229 type  1   force =     0.00041967   -0.00010240   -0.00010240
     atom  230 type  1   force =     0.00015729   -0.00003222   -0.00003222
     atom  231 type  1   force =     0.00042869   -0.00007535   -0.00031899
     atom  232 type  1   force =     0.00013002   -0.00002992    0.00022624
     atom  233 type  1   force =     0.00031821   -0.00032559    0.00005417
     atom  234 type  1   force =     0.00012481    0.00012586    0.00018826
     atom  235 type  1   force =     0.00027391   -0.00021225   -0.00002491
     atom  236 type  1   force =    -0.00005235    0.00012283   -0.00010099
     atom  237 type  1   force =     0.00032617   -0.00040533   -0.00032618
     atom  238 type  1   force =     0.00020724   -0.00022627   -0.00020724
     atom  239 type  1   force =     0.00052020   -0.00062257   -0.00062257
     atom  240 type  1   force =     0.00030918   -0.00045955   -0.00045956
     atom  241 type  1   force =     0.00018519   -0.00018520    0.00019707
     atom  242 type  1   force =    -0.00036592    0.00036592    0.00053278
     atom  243 type  1   force =     0.00006714   -0.00006714    0.00010676
     atom  244 type  1   force =    -0.00030379    0.00030379    0.00001442
     atom  245 type  1   force =     0.00010241   -0.00010241   -0.00041967
     atom  246 type  1   force =     0.00003223   -0.00003222   -0.00015729
     atom  247 type  1   force =     0.00062256   -0.00062257   -0.00052020
     atom  248 type  1   force =     0.00045956   -0.00045955   -0.00030918
     atom  249 type  1   force =     0.00061598   -0.00061598   -0.00061599
     atom  250 type  1   force =     0.00002079   -0.00002079   -0.00002079

     Total force =     0.006881     Total SCF correction =     0.000003


     Computing stress (Cartesian axis) and pressure

          total   stress  (Ry/bohr**3)                   (kbar)     P=   -5.52
  -0.00003755  -0.00000560  -0.00000560         -5.52     -0.82     -0.82
  -0.00000560  -0.00003755   0.00000560         -0.82     -5.52      0.82
  -0.00000560   0.00000560  -0.00003755         -0.82      0.82     -5.52


     Writing output data file n2.save
 
     init_run     :      2.80s CPU      3.19s WALL (       2 calls)
     electrons    :   1574.49s CPU   1602.86s WALL (      11 calls)
     update_pot   :      1.67s CPU      2.19s WALL (       9 calls)
     forces       :     10.13s CPU     10.53s WALL (      11 calls)
     stress       :     77.39s CPU     77.73s WALL (      11 calls)

     Called by init_run:
     wfcinit      :      2.32s CPU      2.53s WALL (       2 calls)
     potinit      :      0.12s CPU      0.15s WALL (       2 calls)

     Called by electrons:
     c_bands      :   1540.74s CPU   1567.60s WALL (     151 calls)
     sum_band     :     28.64s CPU     29.35s WALL (     151 calls)
     v_of_rho     :      1.52s CPU      1.55s WALL (     157 calls)
     mix_rho      :      2.43s CPU      2.49s WALL (     151 calls)

     Called by c_bands:
     init_us_2    :      1.68s CPU      1.94s WALL (     304 calls)
     cegterg      :   1534.92s CPU   1561.23s WALL (     152 calls)

     Called by sum_band:

     Called by *egterg:
     h_psi        :    288.43s CPU    292.69s WALL (    1326 calls)
     g_psi        :      0.45s CPU      0.46s WALL (    1172 calls)
     cdiaghg      :   1085.07s CPU   1102.74s WALL (    1309 calls)

     Called by h_psi:
     h_psi:pot    :    287.66s CPU    291.91s WALL (    1326 calls)
     h_psi:calbec :     68.23s CPU     69.05s WALL (    1326 calls)
     vloc_psi     :    157.98s CPU    160.14s WALL (    1326 calls)
     add_vuspsi   :     61.45s CPU     62.71s WALL (    1326 calls)

     General routines
     calbec       :     76.45s CPU     77.38s WALL (    1381 calls)
     fft          :      2.36s CPU      2.51s WALL (    1823 calls)
     ffts         :      1.64s CPU      1.67s WALL (    2327 calls)
     fftw         :    176.85s CPU    179.34s WALL (  617208 calls)
 
     Parallel routines
     fft_scatter  :    128.12s CPU    130.05s WALL (  621358 calls)
 
     PWSCF        : 27m53.94s CPU    28m32.09s WALL

 
   This run was terminated on:   9:42:33  17Nov2020            

=------------------------------------------------------------------------------=
   JOB DONE.
=------------------------------------------------------------------------------=
