
     Program PHONON v.6.1 (svn rev. 13369) starts on 18Dec2020 at 10:23:57 

     This program is part of the open-source Quantum ESPRESSO suite
     for quantum simulation of materials; please cite
         "P. Giannozzi et al., J. Phys.:Condens. Matter 21 395502 (2009);
          URL http://www.quantum-espresso.org", 
     in publications or presentations arising from this work. More details at
     http://www.quantum-espresso.org/quote

     Parallel version (MPI & OpenMP), running on      80 processor cores
     Number of MPI processes:                80
     Threads/MPI process:                     1
     R & G space division:  proc/nbgrp/npool/nimage =      80

     Reading data from directory:
     ./c.save

   Info: using nr1, nr2, nr3 values from input

   Info: using nr1, nr2, nr3 values from input

     IMPORTANT: XC functional enforced from input :
     Exchange-correlation      = PZ ( 1  1  0  0 0 0)
     Any further DFT definition will be discarded
     Please, verify this is what you really want

               file C.pz-mt.fhi.UPF: wavefunction(s)  3d renormalized
 
     Parallelization info
     --------------------
     sticks:   dense  smooth     PW     G-vecs:    dense   smooth      PW
     Min           4       4      1                   56       56       9
     Max           5       5      2                   60       60      14
     Sum         367     367    121                 4645     4645     869
 


     Dynamical matrices for ( 4, 4, 4)  uniform grid of q-points
     (   8q-points):
       N         xq(1)         xq(2)         xq(3) 
       1   0.000000000   0.000000000   0.000000000
       2  -0.250000000   0.250000000  -0.250000000
       3   0.500000000  -0.500000000   0.500000000
       4   0.000000000   0.500000000   0.000000000
       5   0.750000000  -0.250000000   0.750000000
       6   0.500000000   0.000000000   0.500000000
       7   0.000000000  -1.000000000   0.000000000
       8  -0.500000000  -1.000000000   0.000000000

     Calculation of q =    0.0000000   0.0000000   0.0000000

                                                                                

     bravais-lattice index     =            2
     lattice parameter (alat)  =       6.6750  a.u.
     unit-cell volume          =      74.3522 (a.u.)^3
     number of atoms/cell      =            2
     number of atomic types    =            1
     kinetic-energy cut-off    =      60.0000  Ry
     charge density cut-off    =     240.0000  Ry
     convergence threshold     =      1.0E-24
     beta                      =       0.7000
     number of iterations used =            4
     Exchange-correlation      = PZ ( 1  1  0  0 0 0)


     celldm(1)=    6.67500  celldm(2)=    0.00000  celldm(3)=    0.00000
     celldm(4)=    0.00000  celldm(5)=    0.00000  celldm(6)=    0.00000

     crystal axes: (cart. coord. in units of alat)
               a(1) = ( -0.5000  0.0000  0.5000 )  
               a(2) = (  0.0000  0.5000  0.5000 )  
               a(3) = ( -0.5000  0.5000  0.0000 )  

     reciprocal axes: (cart. coord. in units 2 pi/alat)
               b(1) = ( -1.0000 -1.0000  1.0000 )  
               b(2) = (  1.0000  1.0000  1.0000 )  
               b(3) = ( -1.0000  1.0000 -1.0000 )  


     Atoms inside the unit cell: 

     Cartesian axes

     site n.  atom      mass           positions (alat units)
        1     C   12.0110   tau(    1) = (    0.00000    0.00000    0.00000  )
        2     C   12.0110   tau(    2) = (   -0.25000    0.25000    0.25000  )

     Computing dynamical matrix for 
                    q = (   0.0000000   0.0000000   0.0000000 )
 
     49 Sym.Ops. (with q -> -q+G )


     G cutoff =  270.8657  (     60 G-vectors)     FFT grid: ( 24, 24, 24)
     number of k points=     8

     PseudoPot. # 1 for  C read from file:
     ../C.pz-mt.fhi.UPF
     MD5 check sum: b7c38bc33a0cf75f44be89b84470f298
     Pseudo is Norm-conserving, Zval =  4.0
     Generated using FHI98PP, converted with fhi2upf.x v.5.0.2
     Using radial grid of  461 points,  2 beta functions with: 
                l(1) =   0
                l(2) =   1

     Mode symmetry, O_h (m-3m)  point group:


     Electric field:
     Dielectric constant
     Born effective charges in two ways 


     Atomic displacements:
     There are   2 irreducible representations

     Representation     1      3 modes -T_2g G_25' G_5+  To be done

     Representation     2      3 modes -T_1u G_15  G_4-  To be done



     Alpha used in Ewald sum =   2.5000
     PHONON       :     1.14s CPU         1.91s WALL


     Electric Fields Calculation

      iter #   1 total cpu time :     2.5 secs   av.it.:   5.3
      thresh= 1.000E-02 alpha_mix =  0.700 |ddv_scf|^2 =  3.404E-09

      iter #   2 total cpu time :     3.2 secs   av.it.:   9.7
      thresh= 5.834E-06 alpha_mix =  0.700 |ddv_scf|^2 =  3.826E-11

      iter #   3 total cpu time :     3.5 secs   av.it.:   9.7
      thresh= 6.186E-07 alpha_mix =  0.700 |ddv_scf|^2 =  1.895E-12

      iter #   4 total cpu time :     3.8 secs   av.it.:   9.9
      thresh= 1.377E-07 alpha_mix =  0.700 |ddv_scf|^2 =  3.014E-15

      iter #   5 total cpu time :     4.1 secs   av.it.:   9.5
      thresh= 5.490E-09 alpha_mix =  0.700 |ddv_scf|^2 =  4.728E-19

      iter #   6 total cpu time :     4.3 secs   av.it.:   9.7
      thresh= 6.876E-11 alpha_mix =  0.700 |ddv_scf|^2 =  6.164E-21

      iter #   7 total cpu time :     4.4 secs   av.it.:   9.4
      thresh= 7.851E-12 alpha_mix =  0.700 |ddv_scf|^2 =  2.977E-24

      iter #   8 total cpu time :     5.0 secs   av.it.:   9.2
      thresh= 1.725E-13 alpha_mix =  0.700 |ddv_scf|^2 =  3.749E-26

     End of electric fields calculation

          Dielectric constant in cartesian axis 

          (       7.209202526       0.000000000      -0.000000000 )
          (       0.000000000       7.209202526      -0.000000000 )
          (      -0.000000000      -0.000000000       7.209202526 )

          Effective charges (d Force / dE) in cartesian axis

           atom      1   C  
      Ex  (       -0.34834        0.00000        0.00000 )
      Ey  (        0.00000       -0.34834        0.00000 )
      Ez  (        0.00000        0.00000       -0.34834 )
           atom      2   C  
      Ex  (       -0.34834        0.00000        0.00000 )
      Ey  (        0.00000       -0.34834       -0.00000 )
      Ez  (        0.00000       -0.00000       -0.34834 )


     Representation #  1 modes #   1  2  3

     Self-consistent Calculation

      iter #   1 total cpu time :     5.9 secs   av.it.:   5.6
      thresh= 1.000E-02 alpha_mix =  0.700 |ddv_scf|^2 =  5.270E-08

      iter #   2 total cpu time :     7.9 secs   av.it.:   9.5
      thresh= 2.296E-05 alpha_mix =  0.700 |ddv_scf|^2 =  1.374E-10

      iter #   3 total cpu time :     9.9 secs   av.it.:   9.5
      thresh= 1.172E-06 alpha_mix =  0.700 |ddv_scf|^2 =  2.084E-12

      iter #   4 total cpu time :    11.0 secs   av.it.:   9.3
      thresh= 1.444E-07 alpha_mix =  0.700 |ddv_scf|^2 =  2.910E-15

      iter #   5 total cpu time :    12.5 secs   av.it.:   9.6
      thresh= 5.394E-09 alpha_mix =  0.700 |ddv_scf|^2 =  2.663E-18

      iter #   6 total cpu time :    13.1 secs   av.it.:   9.9
      thresh= 1.632E-10 alpha_mix =  0.700 |ddv_scf|^2 =  9.649E-20

      iter #   7 total cpu time :    13.7 secs   av.it.:  10.0
      thresh= 3.106E-11 alpha_mix =  0.700 |ddv_scf|^2 =  8.129E-23

      iter #   8 total cpu time :    14.4 secs   av.it.:   9.7
      thresh= 9.016E-13 alpha_mix =  0.700 |ddv_scf|^2 =  6.554E-24

      iter #   9 total cpu time :    15.3 secs   av.it.:   9.7
      thresh= 2.560E-13 alpha_mix =  0.700 |ddv_scf|^2 =  1.100E-27

     End of self-consistent calculation

     Convergence has been achieved 


     Representation #  2 modes #   4  5  6

     Self-consistent Calculation

      iter #   1 total cpu time :    15.7 secs   av.it.:   6.1
      thresh= 1.000E-02 alpha_mix =  0.700 |ddv_scf|^2 =  3.476E-08

      iter #   2 total cpu time :    16.1 secs   av.it.:  10.2
      thresh= 1.864E-05 alpha_mix =  0.700 |ddv_scf|^2 =  3.420E-11

      iter #   3 total cpu time :    16.6 secs   av.it.:   9.8
      thresh= 5.848E-07 alpha_mix =  0.700 |ddv_scf|^2 =  3.058E-12

      iter #   4 total cpu time :    17.2 secs   av.it.:   9.8
      thresh= 1.749E-07 alpha_mix =  0.700 |ddv_scf|^2 =  2.201E-15

      iter #   5 total cpu time :    17.5 secs   av.it.:  10.5
      thresh= 4.692E-09 alpha_mix =  0.700 |ddv_scf|^2 =  5.334E-19

      iter #   6 total cpu time :    17.7 secs   av.it.:  10.3
      thresh= 7.303E-11 alpha_mix =  0.700 |ddv_scf|^2 =  2.967E-20

      iter #   7 total cpu time :    17.9 secs   av.it.:   9.3
      thresh= 1.723E-11 alpha_mix =  0.700 |ddv_scf|^2 =  1.512E-24

      iter #   8 total cpu time :    18.2 secs   av.it.:   8.8
      thresh= 1.229E-13 alpha_mix =  0.700 |ddv_scf|^2 =  1.445E-25

     End of self-consistent calculation

     Convergence has been achieved 
 
     Number of q in the star =    1
     List of q in the star:
          1   0.000000000   0.000000000   0.000000000

          Dielectric constant in cartesian axis 

          (       7.209202526       0.000000000      -0.000000000 )
          (       0.000000000       7.209202526      -0.000000000 )
          (      -0.000000000      -0.000000000       7.209202526 )

          Effective charges (d Force / dE) in cartesian axis

           atom      1   C  
      Ex  (       -0.34834        0.00000        0.00000 )
      Ey  (        0.00000       -0.34834        0.00000 )
      Ez  (        0.00000        0.00000       -0.34834 )
           atom      2   C  
      Ex  (       -0.34834        0.00000        0.00000 )
      Ey  (        0.00000       -0.34834       -0.00000 )
      Ez  (        0.00000       -0.00000       -0.34834 )

          Effective charges (d P / du) in cartesian axis 

           atom      1   C  
      Px  (       -0.34834        0.00000       -0.00000 )
      Py  (       -0.00000       -0.34834       -0.00000 )
      Pz  (       -0.00000       -0.00000       -0.34834 )
           atom      2   C  
      Px  (       -0.34834        0.00000       -0.00000 )
      Py  (        0.00000       -0.34834        0.00000 )
      Pz  (       -0.00000        0.00000       -0.34834 )

     Diagonalizing the dynamical matrix

     q = (    0.000000000   0.000000000   0.000000000 ) 

 **************************************************************************
     freq (    1) =      -5.088591 [THz] =    -169.737125 [cm-1]
     freq (    2) =      -5.088591 [THz] =    -169.737125 [cm-1]
     freq (    3) =      -5.088591 [THz] =    -169.737125 [cm-1]
     freq (    4) =      39.912069 [THz] =    1331.323329 [cm-1]
     freq (    5) =      39.912069 [THz] =    1331.323329 [cm-1]
     freq (    6) =      39.912069 [THz] =    1331.323329 [cm-1]
 **************************************************************************

     Mode symmetry, O_h (m-3m)  point group:

     freq (  1 -  3) =       -169.7  [cm-1]   --> T_1u G_15  G_4- I  
     freq (  4 -  6) =       1331.3  [cm-1]   --> T_2g G_25' G_5+ R  

     Calculation of q =   -0.2500000   0.2500000  -0.2500000

   Info: using nr1, nr2, nr3 values from input

   Info: using nr1, nr2, nr3 values from input
 
     Parallelization info
     --------------------
     sticks:   dense  smooth     PW     G-vecs:    dense   smooth      PW
     Min           4       4      1                   56       56       9
     Max           5       5      2                   60       60      14
     Sum         367     367    121                 4645     4645     941
 


     bravais-lattice index     =            2
     lattice parameter (alat)  =       6.6750  a.u.
     unit-cell volume          =      74.3522 (a.u.)^3
     number of atoms/cell      =            2
     number of atomic types    =            1
     number of electrons       =         8.00
     number of Kohn-Sham states=            8
     kinetic-energy cutoff     =      60.0000  Ry
     charge density cutoff     =     240.0000  Ry
     Exchange-correlation      = PZ ( 1  1  0  0 0 0)

     celldm(1)=   6.675000  celldm(2)=   0.000000  celldm(3)=   0.000000
     celldm(4)=   0.000000  celldm(5)=   0.000000  celldm(6)=   0.000000

     crystal axes: (cart. coord. in units of alat)
               a(1) = (  -0.500000   0.000000   0.500000 )  
               a(2) = (   0.000000   0.500000   0.500000 )  
               a(3) = (  -0.500000   0.500000   0.000000 )  

     reciprocal axes: (cart. coord. in units 2 pi/alat)
               b(1) = ( -1.000000 -1.000000  1.000000 )  
               b(2) = (  1.000000  1.000000  1.000000 )  
               b(3) = ( -1.000000  1.000000 -1.000000 )  


     PseudoPot. # 1 for  C read from file:
     ../C.pz-mt.fhi.UPF
     MD5 check sum: b7c38bc33a0cf75f44be89b84470f298
     Pseudo is Norm-conserving, Zval =  4.0
     Generated using FHI98PP, converted with fhi2upf.x v.5.0.2
     Using radial grid of  461 points,  2 beta functions with: 
                l(1) =   0
                l(2) =   1

     atomic species   valence    mass     pseudopotential
        C              4.00    12.01100      C( 1.00)

     48 Sym. Ops., with inversion, found



   Cartesian axes

     site n.     atom                  positions (alat units)
         1           C   tau(   1) = (   0.0000000   0.0000000   0.0000000  )
         2           C   tau(   2) = (  -0.2500000   0.2500000   0.2500000  )

     number of k points=    40
                       cart. coord. in units 2pi/alat
        k(    1) = (   0.0000000   0.0000000   0.0000000), wk =   0.0312500
        k(    2) = (  -0.2500000   0.2500000  -0.2500000), wk =   0.0000000
        k(    3) = (  -0.2500000   0.2500000  -0.2500000), wk =   0.0312500
        k(    4) = (  -0.5000000   0.5000000  -0.5000000), wk =   0.0000000
        k(    5) = (   0.5000000  -0.5000000   0.5000000), wk =   0.0312500
        k(    6) = (   0.2500000  -0.2500000   0.2500000), wk =   0.0000000
        k(    7) = (   0.0000000   0.5000000   0.0000000), wk =   0.0937500
        k(    8) = (  -0.2500000   0.7500000  -0.2500000), wk =   0.0000000
        k(    9) = (   0.7500000  -0.2500000   0.7500000), wk =   0.0937500
        k(   10) = (   0.5000000   0.0000000   0.5000000), wk =   0.0000000
        k(   11) = (   0.5000000   0.0000000   0.5000000), wk =   0.0937500
        k(   12) = (   0.2500000   0.2500000   0.2500000), wk =   0.0000000
        k(   13) = (   0.0000000  -1.0000000   0.0000000), wk =   0.0937500
        k(   14) = (  -0.2500000  -0.7500000  -0.2500000), wk =   0.0000000
        k(   15) = (  -0.5000000  -1.0000000   0.0000000), wk =   0.1875000
        k(   16) = (  -0.7500000  -0.7500000  -0.2500000), wk =   0.0000000
        k(   17) = (   0.2500000  -0.2500000  -0.2500000), wk =   0.0937500
        k(   18) = (   0.0000000   0.0000000  -0.5000000), wk =   0.0000000
        k(   19) = (   0.2500000  -0.2500000   0.2500000), wk =   0.0312500
        k(   20) = (   0.0000000   0.0000000   0.0000000), wk =   0.0000000
        k(   21) = (  -0.2500000  -0.2500000  -0.2500000), wk =   0.0937500
        k(   22) = (  -0.5000000   0.0000000  -0.5000000), wk =   0.0000000
        k(   23) = (  -0.5000000   0.5000000   0.5000000), wk =   0.0937500
        k(   24) = (  -0.7500000   0.7500000   0.2500000), wk =   0.0000000
        k(   25) = (   0.0000000   0.0000000   0.5000000), wk =   0.0937500
        k(   26) = (  -0.2500000   0.2500000   0.2500000), wk =   0.0000000
        k(   27) = (  -0.7500000   0.7500000   0.2500000), wk =   0.0937500
        k(   28) = (  -1.0000000   1.0000000   0.0000000), wk =   0.0000000
        k(   29) = (  -0.7500000   0.7500000  -0.2500000), wk =   0.0937500
        k(   30) = (  -1.0000000   1.0000000  -0.5000000), wk =   0.0000000
        k(   31) = (  -0.7500000   0.2500000   0.7500000), wk =   0.1875000
        k(   32) = (  -1.0000000   0.5000000   0.5000000), wk =   0.0000000
        k(   33) = (   0.7500000   0.2500000   0.7500000), wk =   0.0937500
        k(   34) = (   0.5000000   0.5000000   0.5000000), wk =   0.0000000
        k(   35) = (   0.7500000  -0.2500000  -0.7500000), wk =   0.1875000
        k(   36) = (   0.5000000   0.0000000  -1.0000000), wk =   0.0000000
        k(   37) = (  -0.5000000   0.5000000   0.0000000), wk =   0.0937500
        k(   38) = (  -0.7500000   0.7500000  -0.2500000), wk =   0.0000000
        k(   39) = (  -0.5000000   0.0000000   0.5000000), wk =   0.1875000
        k(   40) = (  -0.7500000   0.2500000   0.2500000), wk =   0.0000000

     Dense  grid:     4645 G-vectors     FFT dimensions: (  24,  24,  24)

     Estimated max dynamical RAM per process >       0.16MB

     Estimated total allocated dynamical RAM >      12.76MB
     Message from routine sym_rho_init:
     some processors have no G-vectors for symmetrization
     Message from routine sym_rho_init:
     some processors have no G-vectors for symmetrization
     Message from routine sym_rho_init:
     some processors have no G-vectors for symmetrization
     Message from routine sym_rho_init:
     some processors have no G-vectors for symmetrization
     Message from routine sym_rho_init:
     some processors have no G-vectors for symmetrization
     Message from routine sym_rho_init:
     some processors have no G-vectors for symmetrization
     Message from routine sym_rho_init:
     some processors have no G-vectors for symmetrization
     Message from routine sym_rho_init:
     some processors have no G-vectors for symmetrization
     Message from routine sym_rho_init:
     some processors have no G-vectors for symmetrization
     Message from routine sym_rho_init:
     some processors have no G-vectors for symmetrization
     Message from routine sym_rho_init:
     some processors have no G-vectors for symmetrization
     Message from routine sym_rho_init:
     some processors have no G-vectors for symmetrization
     Message from routine sym_rho_init:
     some processors have no G-vectors for symmetrization
     Message from routine sym_rho_init:
     some processors have no G-vectors for symmetrization
     Message from routine sym_rho_init:
     some processors have no G-vectors for symmetrization
     Message from routine sym_rho_init:
     some processors have no G-vectors for symmetrization
     Message from routine sym_rho_init:
     some processors have no G-vectors for symmetrization
     Message from routine sym_rho_init:
     some processors have no G-vectors for symmetrization
     Message from routine sym_rho_init:
     some processors have no G-vectors for symmetrization
     Message from routine sym_rho_init:
     some processors have no G-vectors for symmetrization
     Message from routine sym_rho_init:
     some processors have no G-vectors for symmetrization
     Message from routine sym_rho_init:
     some processors have no G-vectors for symmetrization
     Message from routine sym_rho_init:
     some processors have no G-vectors for symmetrization
     Message from routine sym_rho_init:
     some processors have no G-vectors for symmetrization
     Message from routine sym_rho_init:
     some processors have no G-vectors for symmetrization
     Message from routine sym_rho_init:
     some processors have no G-vectors for symmetrization
     Message from routine sym_rho_init:
     some processors have no G-vectors for symmetrization
     Message from routine sym_rho_init:
     some processors have no G-vectors for symmetrization
     Message from routine sym_rho_init:
     some processors have no G-vectors for symmetrization
     Message from routine sym_rho_init:
     some processors have no G-vectors for symmetrization
     Message from routine sym_rho_init:
     some processors have no G-vectors for symmetrization
     Message from routine sym_rho_init:
     some processors have no G-vectors for symmetrization
     Message from routine sym_rho_init:
     some processors have no G-vectors for symmetrization
     Message from routine sym_rho_init:
     some processors have no G-vectors for symmetrization
     Message from routine sym_rho_init:
     some processors have no G-vectors for symmetrization
     Message from routine sym_rho_init:
     some processors have no G-vectors for symmetrization
     Message from routine sym_rho_init:
     some processors have no G-vectors for symmetrization
     Message from routine sym_rho_init:
     some processors have no G-vectors for symmetrization
     Message from routine sym_rho_init:
     some processors have no G-vectors for symmetrization
     Message from routine sym_rho_init:
     some processors have no G-vectors for symmetrization
     Message from routine sym_rho_init:
     some processors have no G-vectors for symmetrization
     Message from routine sym_rho_init:
     some processors have no G-vectors for symmetrization
     Message from routine sym_rho_init:
     some processors have no G-vectors for symmetrization
     Message from routine sym_rho_init:
     some processors have no G-vectors for symmetrization
     Message from routine sym_rho_init:
     some processors have no G-vectors for symmetrization
     Message from routine sym_rho_init:
     some processors have no G-vectors for symmetrization
     Message from routine sym_rho_init:
     some processors have no G-vectors for symmetrization
     Message from routine sym_rho_init:
     some processors have no G-vectors for symmetrization
     Message from routine sym_rho_init:
     some processors have no G-vectors for symmetrization

     The potential is recalculated from file :
     ./_ph0/c.q_2/c.save/charge-density.dat

     Starting wfc are   18 atomic wfcs

     Band Structure Calculation
     Davidson diagonalization with overlap

     ethr =  1.25E-10,  avg # of iterations =  9.3

     total cpu time spent up to now is        0.8 secs

     End of band structure calculation

          k = 0.0000 0.0000 0.0000 (   561 PWs)   bands (ev):

    -8.1298  13.5278  13.5278  13.5278  19.1693  19.1693  19.1693  27.5990

          k =-0.2500 0.2500-0.2500 (   580 PWs)   bands (ev):

    -6.3738   6.9008  11.7466  11.7466  21.4033  21.4033  21.9943  28.5158

          k =-0.2500 0.2500-0.2500 (   580 PWs)   bands (ev):

    -6.3738   6.9008  11.7466  11.7466  21.4033  21.4033  21.9943  28.5158

          k =-0.5000 0.5000-0.5000 (   580 PWs)   bands (ev):

    -2.1064  -0.0877  10.6754  10.6754  22.0613  22.0613  22.9258  29.2312

          k = 0.5000-0.5000 0.5000 (   580 PWs)   bands (ev):

    -2.1064  -0.0877  10.6754  10.6754  22.0613  22.0613  22.9258  29.2312

          k = 0.2500-0.2500 0.2500 (   580 PWs)   bands (ev):

    -6.3738   6.9008  11.7466  11.7466  21.4033  21.4033  21.9943  28.5158

          k = 0.0000 0.5000 0.0000 (   576 PWs)   bands (ev):

    -5.7928   9.1281   9.3124   9.3124  18.0612  23.9421  25.2733  25.2733

          k =-0.2500 0.7500-0.2500 (   584 PWs)   bands (ev):

    -1.9453   2.6825   6.7228   8.5456  19.6917  25.0913  26.5064  27.1791

          k = 0.7500-0.2500 0.7500 (   584 PWs)   bands (ev):

    -1.9453   2.6825   6.7228   8.5456  19.6917  25.0913  26.5064  27.1791

          k = 0.5000 0.0000 0.5000 (   590 PWs)   bands (ev):

    -3.5499   4.8493   5.7778  10.4550  21.5848  23.6645  26.0996  27.7933

          k = 0.5000 0.0000 0.5000 (   590 PWs)   bands (ev):

    -3.5499   4.8493   5.7778  10.4550  21.5848  23.6645  26.0996  27.7933

          k = 0.2500 0.2500 0.2500 (   580 PWs)   bands (ev):

    -6.3738   6.9008  11.7466  11.7466  21.4033  21.4033  21.9943  28.5158

          k = 0.0000-1.0000 0.0000 (   588 PWs)   bands (ev):

     0.7787   0.7787   7.0917   7.0917  18.3661  18.3661  30.5804  30.5804

          k =-0.2500-0.7500-0.2500 (   584 PWs)   bands (ev):

    -1.9453   2.6825   6.7228   8.5456  19.6917  25.0913  26.5064  27.1791

          k =-0.5000-1.0000 0.0000 (   604 PWs)   bands (ev):

     1.6596   1.6596   4.9661   4.9661  24.1444  24.1444  26.2074  26.2074

          k =-0.7500-0.7500-0.2500 (   584 PWs)   bands (ev):

    -1.9453   2.6825   6.7228   8.5456  19.6917  25.0913  26.5064  27.1791

          k = 0.2500-0.2500-0.2500 (   580 PWs)   bands (ev):

    -6.3738   6.9008  11.7466  11.7466  21.4033  21.4033  21.9943  28.5158

          k = 0.0000 0.0000-0.5000 (   576 PWs)   bands (ev):

    -5.7928   9.1281   9.3124   9.3124  18.0612  23.9421  25.2733  25.2733

          k = 0.2500-0.2500 0.2500 (   580 PWs)   bands (ev):

    -6.3738   6.9008  11.7466  11.7466  21.4033  21.4033  21.9943  28.5158

          k = 0.0000 0.0000 0.0000 (   561 PWs)   bands (ev):

    -8.1298  13.5278  13.5278  13.5278  19.1693  19.1693  19.1693  27.5990

          k =-0.2500-0.2500-0.2500 (   580 PWs)   bands (ev):

    -6.3738   6.9008  11.7466  11.7466  21.4033  21.4033  21.9943  28.5158

          k =-0.5000 0.0000-0.5000 (   590 PWs)   bands (ev):

    -3.5499   4.8493   5.7778  10.4550  21.5848  23.6645  26.0996  27.7933

          k =-0.5000 0.5000 0.5000 (   580 PWs)   bands (ev):

    -2.1064  -0.0877  10.6754  10.6754  22.0613  22.0613  22.9258  29.2312

          k =-0.7500 0.7500 0.2500 (   584 PWs)   bands (ev):

    -1.9453   2.6825   6.7228   8.5456  19.6917  25.0913  26.5064  27.1791

          k = 0.0000 0.0000 0.5000 (   576 PWs)   bands (ev):

    -5.7928   9.1281   9.3124   9.3124  18.0612  23.9421  25.2733  25.2733

          k =-0.2500 0.2500 0.2500 (   580 PWs)   bands (ev):

    -6.3738   6.9008  11.7466  11.7466  21.4033  21.4033  21.9943  28.5158

          k =-0.7500 0.7500 0.2500 (   584 PWs)   bands (ev):

    -1.9453   2.6825   6.7228   8.5456  19.6917  25.0913  26.5064  27.1791

          k =-1.0000 1.0000 0.0000 (   588 PWs)   bands (ev):

     0.7787   0.7787   7.0917   7.0917  18.3661  18.3661  30.5804  30.5804

          k =-0.7500 0.7500-0.2500 (   584 PWs)   bands (ev):

    -1.9453   2.6825   6.7228   8.5456  19.6917  25.0913  26.5064  27.1791

          k =-1.0000 1.0000-0.5000 (   576 PWs)   bands (ev):

    -5.7928   9.1281   9.3124   9.3124  18.0612  23.9421  25.2733  25.2733

          k =-0.7500 0.2500 0.7500 (   584 PWs)   bands (ev):

    -1.9453   2.6825   6.7228   8.5456  19.6917  25.0913  26.5064  27.1791

          k =-1.0000 0.5000 0.5000 (   590 PWs)   bands (ev):

    -3.5499   4.8493   5.7778  10.4550  21.5848  23.6645  26.0996  27.7933

          k = 0.7500 0.2500 0.7500 (   584 PWs)   bands (ev):

    -1.9453   2.6825   6.7228   8.5456  19.6917  25.0913  26.5064  27.1791

          k = 0.5000 0.5000 0.5000 (   580 PWs)   bands (ev):

    -2.1064  -0.0877  10.6754  10.6754  22.0613  22.0613  22.9258  29.2312

          k = 0.7500-0.2500-0.7500 (   584 PWs)   bands (ev):

    -1.9453   2.6825   6.7228   8.5456  19.6917  25.0913  26.5064  27.1791

          k = 0.5000 0.0000-1.0000 (   604 PWs)   bands (ev):

     1.6596   1.6596   4.9661   4.9661  24.1444  24.1444  26.2074  26.2074

          k =-0.5000 0.5000 0.0000 (   590 PWs)   bands (ev):

    -3.5499   4.8493   5.7778  10.4550  21.5848  23.6645  26.0996  27.7933

          k =-0.7500 0.7500-0.2500 (   584 PWs)   bands (ev):

    -1.9453   2.6825   6.7228   8.5456  19.6917  25.0913  26.5064  27.1791

          k =-0.5000 0.0000 0.5000 (   590 PWs)   bands (ev):

    -3.5499   4.8493   5.7778  10.4550  21.5848  23.6645  26.0996  27.7933

          k =-0.7500 0.2500 0.2500 (   584 PWs)   bands (ev):

    -1.9453   2.6825   6.7228   8.5456  19.6917  25.0913  26.5064  27.1791

     highest occupied, lowest unoccupied level (ev):    13.5278   18.0612

     Writing output data file c.save

                                                                                

     bravais-lattice index     =            2
     lattice parameter (alat)  =       6.6750  a.u.
     unit-cell volume          =      74.3522 (a.u.)^3
     number of atoms/cell      =            2
     number of atomic types    =            1
     kinetic-energy cut-off    =      60.0000  Ry
     charge density cut-off    =     240.0000  Ry
     convergence threshold     =      1.0E-24
     beta                      =       0.7000
     number of iterations used =            4
     Exchange-correlation      = PZ ( 1  1  0  0 0 0)


     celldm(1)=    6.67500  celldm(2)=    0.00000  celldm(3)=    0.00000
     celldm(4)=    0.00000  celldm(5)=    0.00000  celldm(6)=    0.00000

     crystal axes: (cart. coord. in units of alat)
               a(1) = ( -0.5000  0.0000  0.5000 )  
               a(2) = (  0.0000  0.5000  0.5000 )  
               a(3) = ( -0.5000  0.5000  0.0000 )  

     reciprocal axes: (cart. coord. in units 2 pi/alat)
               b(1) = ( -1.0000 -1.0000  1.0000 )  
               b(2) = (  1.0000  1.0000  1.0000 )  
               b(3) = ( -1.0000  1.0000 -1.0000 )  


     Atoms inside the unit cell: 

     Cartesian axes

     site n.  atom      mass           positions (alat units)
        1     C   12.0110   tau(    1) = (    0.00000    0.00000    0.00000  )
        2     C   12.0110   tau(    2) = (   -0.25000    0.25000    0.25000  )

     Computing dynamical matrix for 
                    q = (  -0.2500000   0.2500000  -0.2500000 )
 
      6 Sym.Ops. (no q -> -q+G )


     G cutoff =  270.8657  (     60 G-vectors)     FFT grid: ( 24, 24, 24)
     number of k points=    40

     PseudoPot. # 1 for  C read from file:
     ../C.pz-mt.fhi.UPF
     MD5 check sum: b7c38bc33a0cf75f44be89b84470f298
     Pseudo is Norm-conserving, Zval =  4.0
     Generated using FHI98PP, converted with fhi2upf.x v.5.0.2
     Using radial grid of  461 points,  2 beta functions with: 
                l(1) =   0
                l(2) =   1

     Mode symmetry, C_3v (3m)   point group:


     Atomic displacements:
     There are   4 irreducible representations

     Representation     1      1 modes -A_1  L_1  To be done

     Representation     2      1 modes -A_1  L_1  To be done

     Representation     3      2 modes -E    L_3  To be done

     Representation     4      2 modes -E    L_3  To be done



     Alpha used in Ewald sum =   2.5000
     PHONON       :    17.07s CPU        20.44s WALL



     Representation #  1 mode #   1

     Self-consistent Calculation

      iter #   1 total cpu time :    20.8 secs   av.it.:   6.8
      thresh= 1.000E-02 alpha_mix =  0.700 |ddv_scf|^2 =  2.551E-04

      iter #   2 total cpu time :    21.5 secs   av.it.:   8.6
      thresh= 1.597E-03 alpha_mix =  0.700 |ddv_scf|^2 =  9.390E-04

      iter #   3 total cpu time :    21.6 secs   av.it.:   7.5
      thresh= 3.064E-03 alpha_mix =  0.700 |ddv_scf|^2 =  2.533E-08

      iter #   4 total cpu time :    21.8 secs   av.it.:   9.5
      thresh= 1.592E-05 alpha_mix =  0.700 |ddv_scf|^2 =  4.818E-09

      iter #   5 total cpu time :    21.9 secs   av.it.:   9.1
      thresh= 6.941E-06 alpha_mix =  0.700 |ddv_scf|^2 =  1.514E-11

      iter #   6 total cpu time :    22.0 secs   av.it.:   9.6
      thresh= 3.891E-07 alpha_mix =  0.700 |ddv_scf|^2 =  9.956E-13

      iter #   7 total cpu time :    22.2 secs   av.it.:   9.2
      thresh= 9.978E-08 alpha_mix =  0.700 |ddv_scf|^2 =  2.845E-13

      iter #   8 total cpu time :    22.3 secs   av.it.:   8.6
      thresh= 5.334E-08 alpha_mix =  0.700 |ddv_scf|^2 =  3.794E-13

      iter #   9 total cpu time :    22.4 secs   av.it.:   8.2
      thresh= 6.160E-08 alpha_mix =  0.700 |ddv_scf|^2 =  2.176E-14

      iter #  10 total cpu time :    22.5 secs   av.it.:   8.3
      thresh= 1.475E-08 alpha_mix =  0.700 |ddv_scf|^2 =  2.508E-15

      iter #  11 total cpu time :    22.6 secs   av.it.:   8.6
      thresh= 5.008E-09 alpha_mix =  0.700 |ddv_scf|^2 =  7.569E-18

      iter #  12 total cpu time :    22.7 secs   av.it.:   9.3
      thresh= 2.751E-10 alpha_mix =  0.700 |ddv_scf|^2 =  2.953E-18

      iter #  13 total cpu time :    22.8 secs   av.it.:   9.0
      thresh= 1.719E-10 alpha_mix =  0.700 |ddv_scf|^2 =  2.605E-19

      iter #  14 total cpu time :    23.0 secs   av.it.:   9.2
      thresh= 5.104E-11 alpha_mix =  0.700 |ddv_scf|^2 =  2.094E-20

      iter #  15 total cpu time :    24.2 secs   av.it.:   8.9
      thresh= 1.447E-11 alpha_mix =  0.700 |ddv_scf|^2 =  5.959E-22

      iter #  16 total cpu time :    24.4 secs   av.it.:   8.8
      thresh= 2.441E-12 alpha_mix =  0.700 |ddv_scf|^2 =  3.801E-23

      iter #  17 total cpu time :    25.3 secs   av.it.:   8.7
      thresh= 6.165E-13 alpha_mix =  0.700 |ddv_scf|^2 =  3.193E-24

      iter #  18 total cpu time :    25.6 secs   av.it.:   9.2
      thresh= 1.787E-13 alpha_mix =  0.700 |ddv_scf|^2 =  2.855E-24

      iter #  19 total cpu time :    26.2 secs   av.it.:   8.6
      thresh= 1.690E-13 alpha_mix =  0.700 |ddv_scf|^2 =  9.324E-26

     End of self-consistent calculation

     Convergence has been achieved 


     Representation #  2 mode #   2

     Self-consistent Calculation

      iter #   1 total cpu time :    27.2 secs   av.it.:   6.8
      thresh= 1.000E-02 alpha_mix =  0.700 |ddv_scf|^2 =  2.551E-04

      iter #   2 total cpu time :    27.4 secs   av.it.:   8.6
      thresh= 1.597E-03 alpha_mix =  0.700 |ddv_scf|^2 =  9.390E-04

      iter #   3 total cpu time :    27.5 secs   av.it.:   7.5
      thresh= 3.064E-03 alpha_mix =  0.700 |ddv_scf|^2 =  2.531E-08

      iter #   4 total cpu time :    27.7 secs   av.it.:   9.5
      thresh= 1.591E-05 alpha_mix =  0.700 |ddv_scf|^2 =  4.787E-09

      iter #   5 total cpu time :    27.9 secs   av.it.:   9.1
      thresh= 6.919E-06 alpha_mix =  0.700 |ddv_scf|^2 =  1.512E-11

      iter #   6 total cpu time :    28.1 secs   av.it.:   9.6
      thresh= 3.889E-07 alpha_mix =  0.700 |ddv_scf|^2 =  9.012E-13

      iter #   7 total cpu time :    28.3 secs   av.it.:   9.2
      thresh= 9.493E-08 alpha_mix =  0.700 |ddv_scf|^2 =  4.375E-13

      iter #   8 total cpu time :    28.5 secs   av.it.:   8.7
      thresh= 6.615E-08 alpha_mix =  0.700 |ddv_scf|^2 =  5.076E-13

      iter #   9 total cpu time :    28.6 secs   av.it.:   7.7
      thresh= 7.125E-08 alpha_mix =  0.700 |ddv_scf|^2 =  6.997E-14

      iter #  10 total cpu time :    28.8 secs   av.it.:   7.8
      thresh= 2.645E-08 alpha_mix =  0.700 |ddv_scf|^2 =  5.224E-16

      iter #  11 total cpu time :    29.4 secs   av.it.:   9.1
      thresh= 2.286E-09 alpha_mix =  0.700 |ddv_scf|^2 =  1.202E-17

      iter #  12 total cpu time :    29.6 secs   av.it.:   9.2
      thresh= 3.466E-10 alpha_mix =  0.700 |ddv_scf|^2 =  2.201E-18

      iter #  13 total cpu time :    29.7 secs   av.it.:   8.8
      thresh= 1.484E-10 alpha_mix =  0.700 |ddv_scf|^2 =  1.376E-19

      iter #  14 total cpu time :    29.9 secs   av.it.:   9.1
      thresh= 3.709E-11 alpha_mix =  0.700 |ddv_scf|^2 =  8.353E-21

      iter #  15 total cpu time :    30.2 secs   av.it.:   8.5
      thresh= 9.140E-12 alpha_mix =  0.700 |ddv_scf|^2 =  2.646E-22

      iter #  16 total cpu time :    30.4 secs   av.it.:   8.9
      thresh= 1.627E-12 alpha_mix =  0.700 |ddv_scf|^2 =  1.304E-23

      iter #  17 total cpu time :    31.6 secs   av.it.:   8.6
      thresh= 3.611E-13 alpha_mix =  0.700 |ddv_scf|^2 =  7.084E-25

     End of self-consistent calculation

     Convergence has been achieved 


     Representation #  3 modes #   3  4

     Self-consistent Calculation

      iter #   1 total cpu time :    32.0 secs   av.it.:   6.1
      thresh= 1.000E-02 alpha_mix =  0.700 |ddv_scf|^2 =  1.227E-07

      iter #   2 total cpu time :    32.8 secs   av.it.:  10.2
      thresh= 3.503E-05 alpha_mix =  0.700 |ddv_scf|^2 =  1.795E-10

      iter #   3 total cpu time :    33.2 secs   av.it.:  10.1
      thresh= 1.340E-06 alpha_mix =  0.700 |ddv_scf|^2 =  7.252E-12

      iter #   4 total cpu time :    38.6 secs   av.it.:   9.9
      thresh= 2.693E-07 alpha_mix =  0.700 |ddv_scf|^2 =  2.459E-13

      iter #   5 total cpu time :    39.4 secs   av.it.:   9.6
      thresh= 4.959E-08 alpha_mix =  0.700 |ddv_scf|^2 =  7.212E-16

      iter #   6 total cpu time :    40.1 secs   av.it.:  10.1
      thresh= 2.685E-09 alpha_mix =  0.700 |ddv_scf|^2 =  2.053E-18

      iter #   7 total cpu time :    41.1 secs   av.it.:  10.3
      thresh= 1.433E-10 alpha_mix =  0.700 |ddv_scf|^2 =  9.485E-20

      iter #   8 total cpu time :    42.0 secs   av.it.:  10.5
      thresh= 3.080E-11 alpha_mix =  0.700 |ddv_scf|^2 =  3.150E-22

      iter #   9 total cpu time :    42.6 secs   av.it.:  10.1
      thresh= 1.775E-12 alpha_mix =  0.700 |ddv_scf|^2 =  7.256E-25

     End of self-consistent calculation

     Convergence has been achieved 


     Representation #  4 modes #   5  6

     Self-consistent Calculation

      iter #   1 total cpu time :    42.9 secs   av.it.:   6.2
      thresh= 1.000E-02 alpha_mix =  0.700 |ddv_scf|^2 =  1.227E-07

      iter #   2 total cpu time :    43.3 secs   av.it.:  10.3
      thresh= 3.502E-05 alpha_mix =  0.700 |ddv_scf|^2 =  1.785E-10

      iter #   3 total cpu time :    43.6 secs   av.it.:  10.4
      thresh= 1.336E-06 alpha_mix =  0.700 |ddv_scf|^2 =  7.250E-12

      iter #   4 total cpu time :    43.9 secs   av.it.:  10.0
      thresh= 2.693E-07 alpha_mix =  0.700 |ddv_scf|^2 =  2.444E-13

      iter #   5 total cpu time :    44.4 secs   av.it.:   9.7
      thresh= 4.943E-08 alpha_mix =  0.700 |ddv_scf|^2 =  7.221E-16

      iter #   6 total cpu time :    44.8 secs   av.it.:  10.4
      thresh= 2.687E-09 alpha_mix =  0.700 |ddv_scf|^2 =  2.055E-18

      iter #   7 total cpu time :    45.4 secs   av.it.:  10.6
      thresh= 1.433E-10 alpha_mix =  0.700 |ddv_scf|^2 =  9.485E-20

      iter #   8 total cpu time :    45.9 secs   av.it.:  10.7
      thresh= 3.080E-11 alpha_mix =  0.700 |ddv_scf|^2 =  3.149E-22

      iter #   9 total cpu time :    46.6 secs   av.it.:  10.4
      thresh= 1.774E-12 alpha_mix =  0.700 |ddv_scf|^2 =  7.915E-25

     End of self-consistent calculation

     Convergence has been achieved 
 
     Number of q in the star =    8
     List of q in the star:
          1  -0.250000000   0.250000000  -0.250000000
          2   0.250000000  -0.250000000  -0.250000000
          3   0.250000000  -0.250000000   0.250000000
          4   0.250000000   0.250000000   0.250000000
          5  -0.250000000  -0.250000000  -0.250000000
          6  -0.250000000  -0.250000000   0.250000000
          7  -0.250000000   0.250000000   0.250000000
          8   0.250000000   0.250000000  -0.250000000

     Diagonalizing the dynamical matrix

     q = (   -0.250000000   0.250000000  -0.250000000 ) 

 **************************************************************************
     freq (    1) =      11.228587 [THz] =     374.545337 [cm-1]
     freq (    2) =      11.228587 [THz] =     374.545337 [cm-1]
     freq (    3) =      20.229698 [THz] =     674.790101 [cm-1]
     freq (    4) =      38.033265 [THz] =    1268.653164 [cm-1]
     freq (    5) =      38.033265 [THz] =    1268.653164 [cm-1]
     freq (    6) =      39.834802 [THz] =    1328.745979 [cm-1]
 **************************************************************************

     Mode symmetry, C_3v (3m)   point group:

     freq (  1 -  2) =        374.5  [cm-1]   --> E    L_3           
     freq (  3 -  3) =        674.8  [cm-1]   --> A_1  L_1           
     freq (  4 -  5) =       1268.7  [cm-1]   --> E    L_3           
     freq (  6 -  6) =       1328.7  [cm-1]   --> A_1  L_1           

     Calculation of q =    0.5000000  -0.5000000   0.5000000

   Info: using nr1, nr2, nr3 values from input

   Info: using nr1, nr2, nr3 values from input
 
     Parallelization info
     --------------------
     sticks:   dense  smooth     PW     G-vecs:    dense   smooth      PW
     Min           4       4      1                   56       56      11
     Max           5       5      2                   60       60      15
     Sum         367     367    139                 4645     4645    1067
 


     bravais-lattice index     =            2
     lattice parameter (alat)  =       6.6750  a.u.
     unit-cell volume          =      74.3522 (a.u.)^3
     number of atoms/cell      =            2
     number of atomic types    =            1
     number of electrons       =         8.00
     number of Kohn-Sham states=            8
     kinetic-energy cutoff     =      60.0000  Ry
     charge density cutoff     =     240.0000  Ry
     Exchange-correlation      = PZ ( 1  1  0  0 0 0)

     celldm(1)=   6.675000  celldm(2)=   0.000000  celldm(3)=   0.000000
     celldm(4)=   0.000000  celldm(5)=   0.000000  celldm(6)=   0.000000

     crystal axes: (cart. coord. in units of alat)
               a(1) = (  -0.500000   0.000000   0.500000 )  
               a(2) = (   0.000000   0.500000   0.500000 )  
               a(3) = (  -0.500000   0.500000   0.000000 )  

     reciprocal axes: (cart. coord. in units 2 pi/alat)
               b(1) = ( -1.000000 -1.000000  1.000000 )  
               b(2) = (  1.000000  1.000000  1.000000 )  
               b(3) = ( -1.000000  1.000000 -1.000000 )  


     PseudoPot. # 1 for  C read from file:
     ../C.pz-mt.fhi.UPF
     MD5 check sum: b7c38bc33a0cf75f44be89b84470f298
     Pseudo is Norm-conserving, Zval =  4.0
     Generated using FHI98PP, converted with fhi2upf.x v.5.0.2
     Using radial grid of  461 points,  2 beta functions with: 
                l(1) =   0
                l(2) =   1

     atomic species   valence    mass     pseudopotential
        C              4.00    12.01100      C( 1.00)

     48 Sym. Ops., with inversion, found



   Cartesian axes

     site n.     atom                  positions (alat units)
         1           C   tau(   1) = (   0.0000000   0.0000000   0.0000000  )
         2           C   tau(   2) = (  -0.2500000   0.2500000   0.2500000  )

     number of k points=    26
                       cart. coord. in units 2pi/alat
        k(    1) = (   0.0000000   0.0000000   0.0000000), wk =   0.0312500
        k(    2) = (   0.5000000  -0.5000000   0.5000000), wk =   0.0000000
        k(    3) = (  -0.2500000   0.2500000  -0.2500000), wk =   0.0625000
        k(    4) = (   0.2500000  -0.2500000   0.2500000), wk =   0.0000000
        k(    5) = (   0.5000000  -0.5000000   0.5000000), wk =   0.0312500
        k(    6) = (   1.0000000  -1.0000000   1.0000000), wk =   0.0000000
        k(    7) = (   0.0000000   0.5000000   0.0000000), wk =   0.1875000
        k(    8) = (   0.5000000   0.0000000   0.5000000), wk =   0.0000000
        k(    9) = (   0.7500000  -0.2500000   0.7500000), wk =   0.1875000
        k(   10) = (   1.2500000  -0.7500000   1.2500000), wk =   0.0000000
        k(   11) = (   0.5000000   0.0000000   0.5000000), wk =   0.1875000
        k(   12) = (   1.0000000  -0.5000000   1.0000000), wk =   0.0000000
        k(   13) = (   0.0000000  -1.0000000   0.0000000), wk =   0.0937500
        k(   14) = (   0.5000000  -1.5000000   0.5000000), wk =   0.0000000
        k(   15) = (  -0.5000000  -1.0000000   0.0000000), wk =   0.1875000
        k(   16) = (   0.0000000  -1.5000000   0.5000000), wk =   0.0000000
        k(   17) = (  -0.2500000  -0.2500000  -0.2500000), wk =   0.1875000
        k(   18) = (   0.2500000  -0.7500000   0.2500000), wk =   0.0000000
        k(   19) = (   0.5000000   0.5000000   0.5000000), wk =   0.0937500
        k(   20) = (   1.0000000   0.0000000   1.0000000), wk =   0.0000000
        k(   21) = (   0.7500000   0.2500000   0.7500000), wk =   0.1875000
        k(   22) = (   1.2500000  -0.2500000   1.2500000), wk =   0.0000000
        k(   23) = (  -0.7500000   0.2500000   0.7500000), wk =   0.3750000
        k(   24) = (  -0.2500000  -0.2500000   1.2500000), wk =   0.0000000
        k(   25) = (  -0.5000000   0.0000000   0.5000000), wk =   0.1875000
        k(   26) = (   0.0000000  -0.5000000   1.0000000), wk =   0.0000000

     Dense  grid:     4645 G-vectors     FFT dimensions: (  24,  24,  24)

     Estimated max dynamical RAM per process >       0.16MB

     Estimated total allocated dynamical RAM >      12.76MB
     Message from routine sym_rho_init:
     some processors have no G-vectors for symmetrization
     Message from routine sym_rho_init:
     some processors have no G-vectors for symmetrization
     Message from routine sym_rho_init:
     some processors have no G-vectors for symmetrization
     Message from routine sym_rho_init:
     some processors have no G-vectors for symmetrization
     Message from routine sym_rho_init:
     some processors have no G-vectors for symmetrization
     Message from routine sym_rho_init:
     some processors have no G-vectors for symmetrization
     Message from routine sym_rho_init:
     some processors have no G-vectors for symmetrization
     Message from routine sym_rho_init:
     some processors have no G-vectors for symmetrization
     Message from routine sym_rho_init:
     some processors have no G-vectors for symmetrization
     Message from routine sym_rho_init:
     some processors have no G-vectors for symmetrization
     Message from routine sym_rho_init:
     some processors have no G-vectors for symmetrization
     Message from routine sym_rho_init:
     some processors have no G-vectors for symmetrization
     Message from routine sym_rho_init:
     some processors have no G-vectors for symmetrization
     Message from routine sym_rho_init:
     some processors have no G-vectors for symmetrization
     Message from routine sym_rho_init:
     some processors have no G-vectors for symmetrization
     Message from routine sym_rho_init:
     some processors have no G-vectors for symmetrization
     Message from routine sym_rho_init:
     some processors have no G-vectors for symmetrization
     Message from routine sym_rho_init:
     some processors have no G-vectors for symmetrization
     Message from routine sym_rho_init:
     some processors have no G-vectors for symmetrization
     Message from routine sym_rho_init:
     some processors have no G-vectors for symmetrization
     Message from routine sym_rho_init:
     some processors have no G-vectors for symmetrization
     Message from routine sym_rho_init:
     some processors have no G-vectors for symmetrization
     Message from routine sym_rho_init:
     some processors have no G-vectors for symmetrization
     Message from routine sym_rho_init:
     some processors have no G-vectors for symmetrization
     Message from routine sym_rho_init:
     some processors have no G-vectors for symmetrization
     Message from routine sym_rho_init:
     some processors have no G-vectors for symmetrization
     Message from routine sym_rho_init:
     some processors have no G-vectors for symmetrization
     Message from routine sym_rho_init:
     some processors have no G-vectors for symmetrization
     Message from routine sym_rho_init:
     some processors have no G-vectors for symmetrization
     Message from routine sym_rho_init:
     some processors have no G-vectors for symmetrization
     Message from routine sym_rho_init:
     some processors have no G-vectors for symmetrization
     Message from routine sym_rho_init:
     some processors have no G-vectors for symmetrization
     Message from routine sym_rho_init:
     some processors have no G-vectors for symmetrization
     Message from routine sym_rho_init:
     some processors have no G-vectors for symmetrization
     Message from routine sym_rho_init:
     some processors have no G-vectors for symmetrization
     Message from routine sym_rho_init:
     some processors have no G-vectors for symmetrization
     Message from routine sym_rho_init:
     some processors have no G-vectors for symmetrization
     Message from routine sym_rho_init:
     some processors have no G-vectors for symmetrization
     Message from routine sym_rho_init:
     some processors have no G-vectors for symmetrization
     Message from routine sym_rho_init:
     some processors have no G-vectors for symmetrization
     Message from routine sym_rho_init:
     some processors have no G-vectors for symmetrization
     Message from routine sym_rho_init:
     some processors have no G-vectors for symmetrization
     Message from routine sym_rho_init:
     some processors have no G-vectors for symmetrization
     Message from routine sym_rho_init:
     some processors have no G-vectors for symmetrization
     Message from routine sym_rho_init:
     some processors have no G-vectors for symmetrization
     Message from routine sym_rho_init:
     some processors have no G-vectors for symmetrization
     Message from routine sym_rho_init:
     some processors have no G-vectors for symmetrization
     Message from routine sym_rho_init:
     some processors have no G-vectors for symmetrization
     Message from routine sym_rho_init:
     some processors have no G-vectors for symmetrization
     Message from routine sym_rho_init:
     some processors have no G-vectors for symmetrization
     Message from routine sym_rho_init:
     some processors have no G-vectors for symmetrization
     Message from routine sym_rho_init:
     some processors have no G-vectors for symmetrization

     The potential is recalculated from file :
     ./_ph0/c.q_3/c.save/charge-density.dat

     Starting wfc are   18 atomic wfcs

     Band Structure Calculation
     Davidson diagonalization with overlap

     ethr =  1.25E-10,  avg # of iterations =  9.2

     total cpu time spent up to now is        1.6 secs

     End of band structure calculation

          k = 0.0000 0.0000 0.0000 (   561 PWs)   bands (ev):

    -8.1298  13.5278  13.5278  13.5278  19.1693  19.1693  19.1693  27.5990

          k = 0.5000-0.5000 0.5000 (   580 PWs)   bands (ev):

    -2.1064  -0.0877  10.6754  10.6754  22.0613  22.0613  22.9258  29.2312

          k =-0.2500 0.2500-0.2500 (   580 PWs)   bands (ev):

    -6.3738   6.9008  11.7466  11.7466  21.4033  21.4033  21.9943  28.5158

          k = 0.2500-0.2500 0.2500 (   580 PWs)   bands (ev):

    -6.3738   6.9008  11.7466  11.7466  21.4033  21.4033  21.9943  28.5158

          k = 0.5000-0.5000 0.5000 (   580 PWs)   bands (ev):

    -2.1064  -0.0877  10.6754  10.6754  22.0613  22.0613  22.9258  29.2312

          k = 1.0000-1.0000 1.0000 (   561 PWs)   bands (ev):

    -8.1298  13.5278  13.5278  13.5278  19.1693  19.1693  19.1693  27.5990

          k = 0.0000 0.5000 0.0000 (   576 PWs)   bands (ev):

    -5.7928   9.1281   9.3124   9.3124  18.0612  23.9421  25.2733  25.2733

          k = 0.5000 0.0000 0.5000 (   590 PWs)   bands (ev):

    -3.5499   4.8493   5.7778  10.4550  21.5848  23.6645  26.0996  27.7933

          k = 0.7500-0.2500 0.7500 (   584 PWs)   bands (ev):

    -1.9453   2.6825   6.7228   8.5456  19.6917  25.0913  26.5064  27.1791

          k = 1.2500-0.7500 1.2500 (   580 PWs)   bands (ev):

    -6.3738   6.9008  11.7466  11.7466  21.4033  21.4033  21.9943  28.5158

          k = 0.5000 0.0000 0.5000 (   590 PWs)   bands (ev):

    -3.5499   4.8493   5.7778  10.4550  21.5848  23.6645  26.0996  27.7933

          k = 1.0000-0.5000 1.0000 (   576 PWs)   bands (ev):

    -5.7928   9.1281   9.3124   9.3124  18.0612  23.9421  25.2733  25.2733

          k = 0.0000-1.0000 0.0000 (   588 PWs)   bands (ev):

     0.7787   0.7787   7.0917   7.0917  18.3661  18.3661  30.5804  30.5804

          k = 0.5000-1.5000 0.5000 (   580 PWs)   bands (ev):

    -2.1064  -0.0877  10.6754  10.6754  22.0613  22.0613  22.9258  29.2312

          k =-0.5000-1.0000 0.0000 (   604 PWs)   bands (ev):

     1.6596   1.6596   4.9661   4.9661  24.1444  24.1444  26.2074  26.2074

          k = 0.0000-1.5000 0.5000 (   590 PWs)   bands (ev):

    -3.5499   4.8493   5.7778  10.4550  21.5848  23.6645  26.0996  27.7933

          k =-0.2500-0.2500-0.2500 (   580 PWs)   bands (ev):

    -6.3738   6.9008  11.7466  11.7466  21.4033  21.4033  21.9943  28.5158

          k = 0.2500-0.7500 0.2500 (   584 PWs)   bands (ev):

    -1.9453   2.6825   6.7228   8.5456  19.6917  25.0913  26.5064  27.1791

          k = 0.5000 0.5000 0.5000 (   580 PWs)   bands (ev):

    -2.1064  -0.0877  10.6754  10.6754  22.0613  22.0613  22.9258  29.2312

          k = 1.0000 0.0000 1.0000 (   588 PWs)   bands (ev):

     0.7787   0.7787   7.0917   7.0917  18.3661  18.3661  30.5804  30.5804

          k = 0.7500 0.2500 0.7500 (   584 PWs)   bands (ev):

    -1.9453   2.6825   6.7228   8.5456  19.6917  25.0913  26.5064  27.1791

          k = 1.2500-0.2500 1.2500 (   584 PWs)   bands (ev):

    -1.9453   2.6825   6.7228   8.5456  19.6917  25.0913  26.5064  27.1791

          k =-0.7500 0.2500 0.7500 (   584 PWs)   bands (ev):

    -1.9453   2.6825   6.7228   8.5456  19.6917  25.0913  26.5064  27.1791

          k =-0.2500-0.2500 1.2500 (   584 PWs)   bands (ev):

    -1.9453   2.6825   6.7228   8.5456  19.6917  25.0913  26.5064  27.1791

          k =-0.5000 0.0000 0.5000 (   590 PWs)   bands (ev):

    -3.5499   4.8493   5.7778  10.4550  21.5848  23.6645  26.0996  27.7933

          k = 0.0000-0.5000 1.0000 (   604 PWs)   bands (ev):

     1.6596   1.6596   4.9661   4.9661  24.1444  24.1444  26.2074  26.2074

     highest occupied, lowest unoccupied level (ev):    13.5278   18.0612

     Writing output data file c.save

                                                                                

     bravais-lattice index     =            2
     lattice parameter (alat)  =       6.6750  a.u.
     unit-cell volume          =      74.3522 (a.u.)^3
     number of atoms/cell      =            2
     number of atomic types    =            1
     kinetic-energy cut-off    =      60.0000  Ry
     charge density cut-off    =     240.0000  Ry
     convergence threshold     =      1.0E-24
     beta                      =       0.7000
     number of iterations used =            4
     Exchange-correlation      = PZ ( 1  1  0  0 0 0)


     celldm(1)=    6.67500  celldm(2)=    0.00000  celldm(3)=    0.00000
     celldm(4)=    0.00000  celldm(5)=    0.00000  celldm(6)=    0.00000

     crystal axes: (cart. coord. in units of alat)
               a(1) = ( -0.5000  0.0000  0.5000 )  
               a(2) = (  0.0000  0.5000  0.5000 )  
               a(3) = ( -0.5000  0.5000  0.0000 )  

     reciprocal axes: (cart. coord. in units 2 pi/alat)
               b(1) = ( -1.0000 -1.0000  1.0000 )  
               b(2) = (  1.0000  1.0000  1.0000 )  
               b(3) = ( -1.0000  1.0000 -1.0000 )  


     Atoms inside the unit cell: 

     Cartesian axes

     site n.  atom      mass           positions (alat units)
        1     C   12.0110   tau(    1) = (    0.00000    0.00000    0.00000  )
        2     C   12.0110   tau(    2) = (   -0.25000    0.25000    0.25000  )

     Computing dynamical matrix for 
                    q = (   0.5000000  -0.5000000   0.5000000 )
 
     13 Sym.Ops. (with q -> -q+G )


     G cutoff =  270.8657  (     60 G-vectors)     FFT grid: ( 24, 24, 24)
     number of k points=    26

     PseudoPot. # 1 for  C read from file:
     ../C.pz-mt.fhi.UPF
     MD5 check sum: b7c38bc33a0cf75f44be89b84470f298
     Pseudo is Norm-conserving, Zval =  4.0
     Generated using FHI98PP, converted with fhi2upf.x v.5.0.2
     Using radial grid of  461 points,  2 beta functions with: 
                l(1) =   0
                l(2) =   1


     Atomic displacements:
     There are   4 irreducible representations

     Representation     1      1 modes -  To be done

     Representation     2      1 modes -  To be done

     Representation     3      2 modes -  To be done

     Representation     4      2 modes -  To be done



     Alpha used in Ewald sum =   2.5000
     PHONON       :    40.88s CPU        48.26s WALL



     Representation #  1 mode #   1

     Self-consistent Calculation

      iter #   1 total cpu time :    48.5 secs   av.it.:   5.9
      thresh= 1.000E-02 alpha_mix =  0.700 |ddv_scf|^2 =  5.337E-06

      iter #   2 total cpu time :    49.0 secs   av.it.:   8.7
      thresh= 2.310E-04 alpha_mix =  0.700 |ddv_scf|^2 =  2.227E-06

      iter #   3 total cpu time :    49.4 secs   av.it.:   8.3
      thresh= 1.492E-04 alpha_mix =  0.700 |ddv_scf|^2 =  4.903E-09

      iter #   4 total cpu time :    50.6 secs   av.it.:   8.0
      thresh= 7.002E-06 alpha_mix =  0.700 |ddv_scf|^2 =  5.376E-12

      iter #   5 total cpu time :    50.9 secs   av.it.:   8.4
      thresh= 2.319E-07 alpha_mix =  0.700 |ddv_scf|^2 =  1.279E-13

      iter #   6 total cpu time :    51.0 secs   av.it.:   8.3
      thresh= 3.577E-08 alpha_mix =  0.700 |ddv_scf|^2 =  1.485E-15

      iter #   7 total cpu time :    51.2 secs   av.it.:   8.3
      thresh= 3.853E-09 alpha_mix =  0.700 |ddv_scf|^2 =  4.325E-19

      iter #   8 total cpu time :    51.4 secs   av.it.:   8.9
      thresh= 6.577E-11 alpha_mix =  0.700 |ddv_scf|^2 =  5.902E-20

      iter #   9 total cpu time :    51.5 secs   av.it.:   8.5
      thresh= 2.429E-11 alpha_mix =  0.700 |ddv_scf|^2 =  5.496E-23

      iter #  10 total cpu time :    51.7 secs   av.it.:   8.5
      thresh= 7.413E-13 alpha_mix =  0.700 |ddv_scf|^2 =  4.462E-24

      iter #  11 total cpu time :    52.1 secs   av.it.:   9.0
      thresh= 2.112E-13 alpha_mix =  0.700 |ddv_scf|^2 =  1.864E-26

     End of self-consistent calculation

     Convergence has been achieved 


     Representation #  2 mode #   2

     Self-consistent Calculation

      iter #   1 total cpu time :    52.6 secs   av.it.:   6.7
      thresh= 1.000E-02 alpha_mix =  0.700 |ddv_scf|^2 =  5.368E-05

      iter #   2 total cpu time :    52.9 secs   av.it.:   9.0
      thresh= 7.326E-04 alpha_mix =  0.700 |ddv_scf|^2 =  5.484E-05

      iter #   3 total cpu time :    53.9 secs   av.it.:   8.5
      thresh= 7.405E-04 alpha_mix =  0.700 |ddv_scf|^2 =  1.108E-07

      iter #   4 total cpu time :    54.7 secs   av.it.:   8.8
      thresh= 3.329E-05 alpha_mix =  0.700 |ddv_scf|^2 =  4.461E-11

      iter #   5 total cpu time :    54.7 secs   av.it.:   9.2
      thresh= 6.679E-07 alpha_mix =  0.700 |ddv_scf|^2 =  2.900E-12

      iter #   6 total cpu time :    54.8 secs   av.it.:   8.7
      thresh= 1.703E-07 alpha_mix =  0.700 |ddv_scf|^2 =  2.807E-14

      iter #   7 total cpu time :    54.9 secs   av.it.:   9.0
      thresh= 1.675E-08 alpha_mix =  0.700 |ddv_scf|^2 =  4.440E-17

      iter #   8 total cpu time :    55.4 secs   av.it.:   8.4
      thresh= 6.664E-10 alpha_mix =  0.700 |ddv_scf|^2 =  4.224E-18

      iter #   9 total cpu time :    55.5 secs   av.it.:   9.1
      thresh= 2.055E-10 alpha_mix =  0.700 |ddv_scf|^2 =  5.088E-20

      iter #  10 total cpu time :    55.7 secs   av.it.:   8.5
      thresh= 2.256E-11 alpha_mix =  0.700 |ddv_scf|^2 =  1.737E-22

      iter #  11 total cpu time :    55.8 secs   av.it.:   8.6
      thresh= 1.318E-12 alpha_mix =  0.700 |ddv_scf|^2 =  2.402E-23

      iter #  12 total cpu time :    56.0 secs   av.it.:   8.7
      thresh= 4.901E-13 alpha_mix =  0.700 |ddv_scf|^2 =  2.708E-26

     End of self-consistent calculation

     Convergence has been achieved 


     Representation #  3 modes #   3  4

     Self-consistent Calculation

      iter #   1 total cpu time :    56.5 secs   av.it.:   6.0
      thresh= 1.000E-02 alpha_mix =  0.700 |ddv_scf|^2 =  3.924E-08

      iter #   2 total cpu time :    57.1 secs   av.it.:   9.9
      thresh= 1.981E-05 alpha_mix =  0.700 |ddv_scf|^2 =  1.266E-10

      iter #   3 total cpu time :    57.4 secs   av.it.:   9.8
      thresh= 1.125E-06 alpha_mix =  0.700 |ddv_scf|^2 =  5.651E-12

      iter #   4 total cpu time :    57.7 secs   av.it.:   9.8
      thresh= 2.377E-07 alpha_mix =  0.700 |ddv_scf|^2 =  1.384E-14

      iter #   5 total cpu time :    58.1 secs   av.it.:  10.1
      thresh= 1.177E-08 alpha_mix =  0.700 |ddv_scf|^2 =  2.147E-17

      iter #   6 total cpu time :    58.3 secs   av.it.:  10.2
      thresh= 4.634E-10 alpha_mix =  0.700 |ddv_scf|^2 =  3.483E-19

      iter #   7 total cpu time :    58.6 secs   av.it.:  10.3
      thresh= 5.901E-11 alpha_mix =  0.700 |ddv_scf|^2 =  9.776E-22

      iter #   8 total cpu time :    59.0 secs   av.it.:   9.8
      thresh= 3.127E-12 alpha_mix =  0.700 |ddv_scf|^2 =  1.121E-24

      iter #   9 total cpu time :    60.1 secs   av.it.:  10.2
      thresh= 1.059E-13 alpha_mix =  0.700 |ddv_scf|^2 =  1.148E-26

     End of self-consistent calculation

     Convergence has been achieved 


     Representation #  4 modes #   5  6

     Self-consistent Calculation

      iter #   1 total cpu time :    62.8 secs   av.it.:   5.9
      thresh= 1.000E-02 alpha_mix =  0.700 |ddv_scf|^2 =  2.503E-07

      iter #   2 total cpu time :    63.1 secs   av.it.:   9.6
      thresh= 5.003E-05 alpha_mix =  0.700 |ddv_scf|^2 =  4.822E-10

      iter #   3 total cpu time :    63.3 secs   av.it.:   9.6
      thresh= 2.196E-06 alpha_mix =  0.700 |ddv_scf|^2 =  8.814E-12

      iter #   4 total cpu time :    63.6 secs   av.it.:   9.5
      thresh= 2.969E-07 alpha_mix =  0.700 |ddv_scf|^2 =  3.905E-14

      iter #   5 total cpu time :    63.8 secs   av.it.:   9.6
      thresh= 1.976E-08 alpha_mix =  0.700 |ddv_scf|^2 =  1.281E-17

      iter #   6 total cpu time :    64.0 secs   av.it.:   9.8
      thresh= 3.579E-10 alpha_mix =  0.700 |ddv_scf|^2 =  6.888E-19

      iter #   7 total cpu time :    64.5 secs   av.it.:  10.0
      thresh= 8.299E-11 alpha_mix =  0.700 |ddv_scf|^2 =  8.509E-22

      iter #   8 total cpu time :    64.8 secs   av.it.:   9.2
      thresh= 2.917E-12 alpha_mix =  0.700 |ddv_scf|^2 =  7.224E-23

      iter #   9 total cpu time :    65.4 secs   av.it.:   9.7
      thresh= 8.500E-13 alpha_mix =  0.700 |ddv_scf|^2 =  9.768E-27

     End of self-consistent calculation

     Convergence has been achieved 
 
     Number of q in the star =    4
     List of q in the star:
          1   0.500000000  -0.500000000   0.500000000
          2   0.500000000   0.500000000   0.500000000
          3  -0.500000000   0.500000000   0.500000000
          4   0.500000000   0.500000000  -0.500000000

     Diagonalizing the dynamical matrix

     q = (    0.500000000  -0.500000000   0.500000000 ) 

 **************************************************************************
     freq (    1) =      15.725046 [THz] =     524.531090 [cm-1]
     freq (    2) =      15.725046 [THz] =     524.531090 [cm-1]
     freq (    3) =      31.105920 [THz] =    1037.581807 [cm-1]
     freq (    4) =      36.682645 [THz] =    1223.601313 [cm-1]
     freq (    5) =      36.682645 [THz] =    1223.601313 [cm-1]
     freq (    6) =      37.896207 [THz] =    1264.081402 [cm-1]
 **************************************************************************

     Calculation of q =    0.0000000   0.5000000   0.0000000

   Info: using nr1, nr2, nr3 values from input

   Info: using nr1, nr2, nr3 values from input
 
     Parallelization info
     --------------------
     sticks:   dense  smooth     PW     G-vecs:    dense   smooth      PW
     Min           4       4      1                   56       56       9
     Max           5       5      2                   60       60      14
     Sum         367     367    121                 4645     4645     941
 


     bravais-lattice index     =            2
     lattice parameter (alat)  =       6.6750  a.u.
     unit-cell volume          =      74.3522 (a.u.)^3
     number of atoms/cell      =            2
     number of atomic types    =            1
     number of electrons       =         8.00
     number of Kohn-Sham states=            8
     kinetic-energy cutoff     =      60.0000  Ry
     charge density cutoff     =     240.0000  Ry
     Exchange-correlation      = PZ ( 1  1  0  0 0 0)

     celldm(1)=   6.675000  celldm(2)=   0.000000  celldm(3)=   0.000000
     celldm(4)=   0.000000  celldm(5)=   0.000000  celldm(6)=   0.000000

     crystal axes: (cart. coord. in units of alat)
               a(1) = (  -0.500000   0.000000   0.500000 )  
               a(2) = (   0.000000   0.500000   0.500000 )  
               a(3) = (  -0.500000   0.500000   0.000000 )  

     reciprocal axes: (cart. coord. in units 2 pi/alat)
               b(1) = ( -1.000000 -1.000000  1.000000 )  
               b(2) = (  1.000000  1.000000  1.000000 )  
               b(3) = ( -1.000000  1.000000 -1.000000 )  


     PseudoPot. # 1 for  C read from file:
     ../C.pz-mt.fhi.UPF
     MD5 check sum: b7c38bc33a0cf75f44be89b84470f298
     Pseudo is Norm-conserving, Zval =  4.0
     Generated using FHI98PP, converted with fhi2upf.x v.5.0.2
     Using radial grid of  461 points,  2 beta functions with: 
                l(1) =   0
                l(2) =   1

     atomic species   valence    mass     pseudopotential
        C              4.00    12.01100      C( 1.00)

     48 Sym. Ops., with inversion, found



   Cartesian axes

     site n.     atom                  positions (alat units)
         1           C   tau(   1) = (   0.0000000   0.0000000   0.0000000  )
         2           C   tau(   2) = (  -0.2500000   0.2500000   0.2500000  )

     number of k points=    36
                       cart. coord. in units 2pi/alat
        k(    1) = (   0.0000000   0.0000000   0.0000000), wk =   0.0312500
        k(    2) = (   0.0000000   0.5000000   0.0000000), wk =   0.0000000
        k(    3) = (  -0.2500000   0.2500000  -0.2500000), wk =   0.1250000
        k(    4) = (  -0.2500000   0.7500000  -0.2500000), wk =   0.0000000
        k(    5) = (   0.5000000  -0.5000000   0.5000000), wk =   0.1250000
        k(    6) = (   0.5000000   0.0000000   0.5000000), wk =   0.0000000
        k(    7) = (   0.0000000   0.5000000   0.0000000), wk =   0.0312500
        k(    8) = (   0.0000000   1.0000000   0.0000000), wk =   0.0000000
        k(    9) = (   0.7500000  -0.2500000   0.7500000), wk =   0.1250000
        k(   10) = (   0.7500000   0.2500000   0.7500000), wk =   0.0000000
        k(   11) = (   0.5000000   0.0000000   0.5000000), wk =   0.1250000
        k(   12) = (   0.5000000   0.5000000   0.5000000), wk =   0.0000000
        k(   13) = (   0.0000000  -1.0000000   0.0000000), wk =   0.0312500
        k(   14) = (   0.0000000  -0.5000000   0.0000000), wk =   0.0000000
        k(   15) = (  -0.5000000  -1.0000000   0.0000000), wk =   0.1250000
        k(   16) = (  -0.5000000  -0.5000000   0.0000000), wk =   0.0000000
        k(   17) = (   0.2500000  -0.2500000   0.2500000), wk =   0.1250000
        k(   18) = (   0.2500000   0.2500000   0.2500000), wk =   0.0000000
        k(   19) = (   0.0000000  -0.5000000   0.0000000), wk =   0.0312500
        k(   20) = (   0.0000000   0.0000000   0.0000000), wk =   0.0000000
        k(   21) = (   0.5000000   0.0000000   0.0000000), wk =   0.1250000
        k(   22) = (   0.5000000   0.5000000   0.0000000), wk =   0.0000000
        k(   23) = (  -0.7500000   0.2500000  -0.7500000), wk =   0.1250000
        k(   24) = (  -0.7500000   0.7500000  -0.7500000), wk =   0.0000000
        k(   25) = (  -0.2500000   0.7500000  -0.7500000), wk =   0.2500000
        k(   26) = (  -0.2500000   1.2500000  -0.7500000), wk =   0.0000000
        k(   27) = (  -0.2500000  -0.7500000  -0.7500000), wk =   0.2500000
        k(   28) = (  -0.2500000  -0.2500000  -0.7500000), wk =   0.0000000
        k(   29) = (   0.0000000   0.5000000  -0.5000000), wk =   0.1250000
        k(   30) = (   0.0000000   1.0000000  -0.5000000), wk =   0.0000000
        k(   31) = (   0.0000000  -0.5000000  -0.5000000), wk =   0.1250000
        k(   32) = (   0.0000000   0.0000000  -0.5000000), wk =   0.0000000
        k(   33) = (  -1.0000000   0.0000000   0.0000000), wk =   0.0625000
        k(   34) = (  -1.0000000   0.5000000   0.0000000), wk =   0.0000000
        k(   35) = (  -1.0000000  -0.5000000   0.0000000), wk =   0.0625000
        k(   36) = (  -1.0000000   0.0000000   0.0000000), wk =   0.0000000

     Dense  grid:     4645 G-vectors     FFT dimensions: (  24,  24,  24)

     Estimated max dynamical RAM per process >       0.16MB

     Estimated total allocated dynamical RAM >      12.76MB
     Message from routine sym_rho_init:
     some processors have no G-vectors for symmetrization
     Message from routine sym_rho_init:
     some processors have no G-vectors for symmetrization
     Message from routine sym_rho_init:
     some processors have no G-vectors for symmetrization
     Message from routine sym_rho_init:
     some processors have no G-vectors for symmetrization
     Message from routine sym_rho_init:
     some processors have no G-vectors for symmetrization
     Message from routine sym_rho_init:
     some processors have no G-vectors for symmetrization
     Message from routine sym_rho_init:
     some processors have no G-vectors for symmetrization
     Message from routine sym_rho_init:
     some processors have no G-vectors for symmetrization
     Message from routine sym_rho_init:
     some processors have no G-vectors for symmetrization
     Message from routine sym_rho_init:
     some processors have no G-vectors for symmetrization
     Message from routine sym_rho_init:
     some processors have no G-vectors for symmetrization
     Message from routine sym_rho_init:
     some processors have no G-vectors for symmetrization
     Message from routine sym_rho_init:
     some processors have no G-vectors for symmetrization
     Message from routine sym_rho_init:
     some processors have no G-vectors for symmetrization
     Message from routine sym_rho_init:
     some processors have no G-vectors for symmetrization
     Message from routine sym_rho_init:
     some processors have no G-vectors for symmetrization
     Message from routine sym_rho_init:
     some processors have no G-vectors for symmetrization
     Message from routine sym_rho_init:
     some processors have no G-vectors for symmetrization
     Message from routine sym_rho_init:
     some processors have no G-vectors for symmetrization
     Message from routine sym_rho_init:
     some processors have no G-vectors for symmetrization
     Message from routine sym_rho_init:
     some processors have no G-vectors for symmetrization
     Message from routine sym_rho_init:
     some processors have no G-vectors for symmetrization
     Message from routine sym_rho_init:
     some processors have no G-vectors for symmetrization
     Message from routine sym_rho_init:
     some processors have no G-vectors for symmetrization
     Message from routine sym_rho_init:
     some processors have no G-vectors for symmetrization
     Message from routine sym_rho_init:
     some processors have no G-vectors for symmetrization
     Message from routine sym_rho_init:
     some processors have no G-vectors for symmetrization
     Message from routine sym_rho_init:
     some processors have no G-vectors for symmetrization
     Message from routine sym_rho_init:
     some processors have no G-vectors for symmetrization
     Message from routine sym_rho_init:
     some processors have no G-vectors for symmetrization
     Message from routine sym_rho_init:
     some processors have no G-vectors for symmetrization
     Message from routine sym_rho_init:
     some processors have no G-vectors for symmetrization
     Message from routine sym_rho_init:
     some processors have no G-vectors for symmetrization
     Message from routine sym_rho_init:
     some processors have no G-vectors for symmetrization
     Message from routine sym_rho_init:
     some processors have no G-vectors for symmetrization
     Message from routine sym_rho_init:
     some processors have no G-vectors for symmetrization
     Message from routine sym_rho_init:
     some processors have no G-vectors for symmetrization
     Message from routine sym_rho_init:
     some processors have no G-vectors for symmetrization
     Message from routine sym_rho_init:
     some processors have no G-vectors for symmetrization
     Message from routine sym_rho_init:
     some processors have no G-vectors for symmetrization
     Message from routine sym_rho_init:
     some processors have no G-vectors for symmetrization
     Message from routine sym_rho_init:
     some processors have no G-vectors for symmetrization
     Message from routine sym_rho_init:
     some processors have no G-vectors for symmetrization
     Message from routine sym_rho_init:
     some processors have no G-vectors for symmetrization
     Message from routine sym_rho_init:
     some processors have no G-vectors for symmetrization
     Message from routine sym_rho_init:
     some processors have no G-vectors for symmetrization
     Message from routine sym_rho_init:
     some processors have no G-vectors for symmetrization
     Message from routine sym_rho_init:
     some processors have no G-vectors for symmetrization
     Message from routine sym_rho_init:
     some processors have no G-vectors for symmetrization

     The potential is recalculated from file :
     ./_ph0/c.q_4/c.save/charge-density.dat

     Starting wfc are   18 atomic wfcs

     Band Structure Calculation
     Davidson diagonalization with overlap

     ethr =  1.25E-10,  avg # of iterations =  9.2

     total cpu time spent up to now is        2.6 secs

     End of band structure calculation

          k = 0.0000 0.0000 0.0000 (   561 PWs)   bands (ev):

    -8.1298  13.5278  13.5278  13.5278  19.1693  19.1693  19.1693  27.5990

          k = 0.0000 0.5000 0.0000 (   576 PWs)   bands (ev):

    -5.7928   9.1281   9.3124   9.3124  18.0612  23.9421  25.2733  25.2733

          k =-0.2500 0.2500-0.2500 (   580 PWs)   bands (ev):

    -6.3738   6.9008  11.7466  11.7466  21.4033  21.4033  21.9943  28.5158

          k =-0.2500 0.7500-0.2500 (   584 PWs)   bands (ev):

    -1.9453   2.6825   6.7228   8.5456  19.6917  25.0913  26.5064  27.1791

          k = 0.5000-0.5000 0.5000 (   580 PWs)   bands (ev):

    -2.1064  -0.0877  10.6754  10.6754  22.0613  22.0613  22.9258  29.2312

          k = 0.5000 0.0000 0.5000 (   590 PWs)   bands (ev):

    -3.5499   4.8493   5.7778  10.4550  21.5848  23.6645  26.0996  27.7933

          k = 0.0000 0.5000 0.0000 (   576 PWs)   bands (ev):

    -5.7928   9.1281   9.3124   9.3124  18.0612  23.9421  25.2733  25.2733

          k = 0.0000 1.0000 0.0000 (   588 PWs)   bands (ev):

     0.7787   0.7787   7.0917   7.0917  18.3661  18.3661  30.5804  30.5804

          k = 0.7500-0.2500 0.7500 (   584 PWs)   bands (ev):

    -1.9453   2.6825   6.7228   8.5456  19.6917  25.0913  26.5064  27.1791

          k = 0.7500 0.2500 0.7500 (   584 PWs)   bands (ev):

    -1.9453   2.6825   6.7228   8.5456  19.6917  25.0913  26.5064  27.1791

          k = 0.5000 0.0000 0.5000 (   590 PWs)   bands (ev):

    -3.5499   4.8493   5.7778  10.4550  21.5848  23.6645  26.0996  27.7933

          k = 0.5000 0.5000 0.5000 (   580 PWs)   bands (ev):

    -2.1064  -0.0877  10.6754  10.6754  22.0613  22.0613  22.9258  29.2312

          k = 0.0000-1.0000 0.0000 (   588 PWs)   bands (ev):

     0.7787   0.7787   7.0917   7.0917  18.3661  18.3661  30.5804  30.5804

          k = 0.0000-0.5000 0.0000 (   576 PWs)   bands (ev):

    -5.7928   9.1281   9.3124   9.3124  18.0612  23.9421  25.2733  25.2733

          k =-0.5000-1.0000 0.0000 (   604 PWs)   bands (ev):

     1.6596   1.6596   4.9661   4.9661  24.1444  24.1444  26.2074  26.2074

          k =-0.5000-0.5000 0.0000 (   590 PWs)   bands (ev):

    -3.5499   4.8493   5.7778  10.4550  21.5848  23.6645  26.0996  27.7933

          k = 0.2500-0.2500 0.2500 (   580 PWs)   bands (ev):

    -6.3738   6.9008  11.7466  11.7466  21.4033  21.4033  21.9943  28.5158

          k = 0.2500 0.2500 0.2500 (   580 PWs)   bands (ev):

    -6.3738   6.9008  11.7466  11.7466  21.4033  21.4033  21.9943  28.5158

          k = 0.0000-0.5000 0.0000 (   576 PWs)   bands (ev):

    -5.7928   9.1281   9.3124   9.3124  18.0612  23.9421  25.2733  25.2733

          k = 0.0000 0.0000 0.0000 (   561 PWs)   bands (ev):

    -8.1298  13.5278  13.5278  13.5278  19.1693  19.1693  19.1693  27.5990

          k = 0.5000 0.0000 0.0000 (   576 PWs)   bands (ev):

    -5.7928   9.1281   9.3124   9.3124  18.0612  23.9421  25.2733  25.2733

          k = 0.5000 0.5000 0.0000 (   590 PWs)   bands (ev):

    -3.5499   4.8493   5.7778  10.4550  21.5848  23.6645  26.0996  27.7933

          k =-0.7500 0.2500-0.7500 (   584 PWs)   bands (ev):

    -1.9453   2.6825   6.7228   8.5456  19.6917  25.0913  26.5064  27.1791

          k =-0.7500 0.7500-0.7500 (   580 PWs)   bands (ev):

    -6.3738   6.9008  11.7466  11.7466  21.4033  21.4033  21.9943  28.5158

          k =-0.2500 0.7500-0.7500 (   584 PWs)   bands (ev):

    -1.9453   2.6825   6.7228   8.5456  19.6917  25.0913  26.5064  27.1791

          k =-0.2500 1.2500-0.7500 (   584 PWs)   bands (ev):

    -1.9453   2.6825   6.7228   8.5456  19.6917  25.0913  26.5064  27.1791

          k =-0.2500-0.7500-0.7500 (   584 PWs)   bands (ev):

    -1.9453   2.6825   6.7228   8.5456  19.6917  25.0913  26.5064  27.1791

          k =-0.2500-0.2500-0.7500 (   584 PWs)   bands (ev):

    -1.9453   2.6825   6.7228   8.5456  19.6917  25.0913  26.5064  27.1791

          k = 0.0000 0.5000-0.5000 (   590 PWs)   bands (ev):

    -3.5499   4.8493   5.7778  10.4550  21.5848  23.6645  26.0996  27.7933

          k = 0.0000 1.0000-0.5000 (   604 PWs)   bands (ev):

     1.6596   1.6596   4.9661   4.9661  24.1444  24.1444  26.2074  26.2074

          k = 0.0000-0.5000-0.5000 (   590 PWs)   bands (ev):

    -3.5499   4.8493   5.7778  10.4550  21.5848  23.6645  26.0996  27.7933

          k = 0.0000 0.0000-0.5000 (   576 PWs)   bands (ev):

    -5.7928   9.1281   9.3124   9.3124  18.0612  23.9421  25.2733  25.2733

          k =-1.0000 0.0000 0.0000 (   588 PWs)   bands (ev):

     0.7787   0.7787   7.0917   7.0917  18.3661  18.3661  30.5804  30.5804

          k =-1.0000 0.5000 0.0000 (   604 PWs)   bands (ev):

     1.6596   1.6596   4.9661   4.9661  24.1444  24.1444  26.2074  26.2074

          k =-1.0000-0.5000 0.0000 (   604 PWs)   bands (ev):

     1.6596   1.6596   4.9661   4.9661  24.1444  24.1444  26.2074  26.2074

          k =-1.0000 0.0000 0.0000 (   588 PWs)   bands (ev):

     0.7787   0.7787   7.0917   7.0917  18.3661  18.3661  30.5804  30.5804

     highest occupied, lowest unoccupied level (ev):    13.5278   18.0612

     Writing output data file c.save

                                                                                

     bravais-lattice index     =            2
     lattice parameter (alat)  =       6.6750  a.u.
     unit-cell volume          =      74.3522 (a.u.)^3
     number of atoms/cell      =            2
     number of atomic types    =            1
     kinetic-energy cut-off    =      60.0000  Ry
     charge density cut-off    =     240.0000  Ry
     convergence threshold     =      1.0E-24
     beta                      =       0.7000
     number of iterations used =            4
     Exchange-correlation      = PZ ( 1  1  0  0 0 0)


     celldm(1)=    6.67500  celldm(2)=    0.00000  celldm(3)=    0.00000
     celldm(4)=    0.00000  celldm(5)=    0.00000  celldm(6)=    0.00000

     crystal axes: (cart. coord. in units of alat)
               a(1) = ( -0.5000  0.0000  0.5000 )  
               a(2) = (  0.0000  0.5000  0.5000 )  
               a(3) = ( -0.5000  0.5000  0.0000 )  

     reciprocal axes: (cart. coord. in units 2 pi/alat)
               b(1) = ( -1.0000 -1.0000  1.0000 )  
               b(2) = (  1.0000  1.0000  1.0000 )  
               b(3) = ( -1.0000  1.0000 -1.0000 )  


     Atoms inside the unit cell: 

     Cartesian axes

     site n.  atom      mass           positions (alat units)
        1     C   12.0110   tau(    1) = (    0.00000    0.00000    0.00000  )
        2     C   12.0110   tau(    2) = (   -0.25000    0.25000    0.25000  )

     Computing dynamical matrix for 
                    q = (   0.0000000   0.5000000   0.0000000 )
 
      8 Sym.Ops. (no q -> -q+G )


     G cutoff =  270.8657  (     60 G-vectors)     FFT grid: ( 24, 24, 24)
     number of k points=    36

     PseudoPot. # 1 for  C read from file:
     ../C.pz-mt.fhi.UPF
[...]
     Message from routine sym_rho_init:
     some processors have no G-vectors for symmetrization
     Message from routine sym_rho_init:
     some processors have no G-vectors for symmetrization
     Message from routine sym_rho_init:
     some processors have no G-vectors for symmetrization
     Message from routine sym_rho_init:
     some processors have no G-vectors for symmetrization
     Message from routine sym_rho_init:
     some processors have no G-vectors for symmetrization
     Message from routine sym_rho_init:
     some processors have no G-vectors for symmetrization
     Message from routine sym_rho_init:
     some processors have no G-vectors for symmetrization
     Message from routine sym_rho_init:
     some processors have no G-vectors for symmetrization
     Message from routine sym_rho_init:
     some processors have no G-vectors for symmetrization
     Message from routine sym_rho_init:
     some processors have no G-vectors for symmetrization
     Message from routine sym_rho_init:
     some processors have no G-vectors for symmetrization
     Message from routine sym_rho_init:
     some processors have no G-vectors for symmetrization
     Message from routine sym_rho_init:
     some processors have no G-vectors for symmetrization
     Message from routine sym_rho_init:
     some processors have no G-vectors for symmetrization
     Message from routine sym_rho_init:
     some processors have no G-vectors for symmetrization
     Message from routine sym_rho_init:
     some processors have no G-vectors for symmetrization
     Message from routine sym_rho_init:
     some processors have no G-vectors for symmetrization
     Message from routine sym_rho_init:
     some processors have no G-vectors for symmetrization

     The potential is recalculated from file :
     ./_ph0/c.q_8/c.save/charge-density.dat

     Starting wfc are   18 atomic wfcs

     Band Structure Calculation
     Davidson diagonalization with overlap

     ethr =  1.25E-10,  avg # of iterations =  9.2

     total cpu time spent up to now is        9.8 secs

     End of band structure calculation

          k = 0.0000 0.0000 0.0000 (   561 PWs)   bands (ev):

    -8.1298  13.5278  13.5278  13.5278  19.1693  19.1693  19.1693  27.5990

          k =-0.5000-1.0000 0.0000 (   604 PWs)   bands (ev):

     1.6596   1.6596   4.9661   4.9661  24.1444  24.1444  26.2074  26.2074

          k =-0.2500 0.2500-0.2500 (   580 PWs)   bands (ev):

    -6.3738   6.9008  11.7466  11.7466  21.4033  21.4033  21.9943  28.5158

          k =-0.7500-0.7500-0.2500 (   584 PWs)   bands (ev):

    -1.9453   2.6825   6.7228   8.5456  19.6917  25.0913  26.5064  27.1791

          k = 0.5000-0.5000 0.5000 (   580 PWs)   bands (ev):

    -2.1064  -0.0877  10.6754  10.6754  22.0613  22.0613  22.9258  29.2312

          k = 0.0000-1.5000 0.5000 (   590 PWs)   bands (ev):

    -3.5499   4.8493   5.7778  10.4550  21.5848  23.6645  26.0996  27.7933

          k = 0.0000 0.5000 0.0000 (   576 PWs)   bands (ev):

    -5.7928   9.1281   9.3124   9.3124  18.0612  23.9421  25.2733  25.2733

          k =-0.5000-0.5000 0.0000 (   590 PWs)   bands (ev):

    -3.5499   4.8493   5.7778  10.4550  21.5848  23.6645  26.0996  27.7933

          k = 0.7500-0.2500 0.7500 (   584 PWs)   bands (ev):

    -1.9453   2.6825   6.7228   8.5456  19.6917  25.0913  26.5064  27.1791

          k = 0.2500-1.2500 0.7500 (   584 PWs)   bands (ev):

    -1.9453   2.6825   6.7228   8.5456  19.6917  25.0913  26.5064  27.1791

          k = 0.5000 0.0000 0.5000 (   590 PWs)   bands (ev):

    -3.5499   4.8493   5.7778  10.4550  21.5848  23.6645  26.0996  27.7933

          k = 0.0000-1.0000 0.5000 (   604 PWs)   bands (ev):

     1.6596   1.6596   4.9661   4.9661  24.1444  24.1444  26.2074  26.2074

          k = 0.0000-1.0000 0.0000 (   588 PWs)   bands (ev):

     0.7787   0.7787   7.0917   7.0917  18.3661  18.3661  30.5804  30.5804

          k =-0.5000-2.0000 0.0000 (   576 PWs)   bands (ev):

    -5.7928   9.1281   9.3124   9.3124  18.0612  23.9421  25.2733  25.2733

          k =-0.5000-1.0000 0.0000 (   604 PWs)   bands (ev):

     1.6596   1.6596   4.9661   4.9661  24.1444  24.1444  26.2074  26.2074

          k =-1.0000-2.0000 0.0000 (   588 PWs)   bands (ev):

     0.7787   0.7787   7.0917   7.0917  18.3661  18.3661  30.5804  30.5804

          k = 0.5000 0.0000 0.0000 (   576 PWs)   bands (ev):

    -5.7928   9.1281   9.3124   9.3124  18.0612  23.9421  25.2733  25.2733

          k = 0.0000-1.0000 0.0000 (   588 PWs)   bands (ev):

     0.7787   0.7787   7.0917   7.0917  18.3661  18.3661  30.5804  30.5804

          k =-0.7500 0.2500-0.7500 (   584 PWs)   bands (ev):

    -1.9453   2.6825   6.7228   8.5456  19.6917  25.0913  26.5064  27.1791

          k =-1.2500-0.7500-0.7500 (   580 PWs)   bands (ev):

    -6.3738   6.9008  11.7466  11.7466  21.4033  21.4033  21.9943  28.5158

          k =-0.2500 0.7500 0.7500 (   584 PWs)   bands (ev):

    -1.9453   2.6825   6.7228   8.5456  19.6917  25.0913  26.5064  27.1791

          k =-0.7500-0.2500 0.7500 (   584 PWs)   bands (ev):

    -1.9453   2.6825   6.7228   8.5456  19.6917  25.0913  26.5064  27.1791

          k =-0.5000 0.0000-0.5000 (   590 PWs)   bands (ev):

    -3.5499   4.8493   5.7778  10.4550  21.5848  23.6645  26.0996  27.7933

          k =-1.0000-1.0000-0.5000 (   576 PWs)   bands (ev):

    -5.7928   9.1281   9.3124   9.3124  18.0612  23.9421  25.2733  25.2733

          k = 0.0000 0.5000 0.5000 (   590 PWs)   bands (ev):

    -3.5499   4.8493   5.7778  10.4550  21.5848  23.6645  26.0996  27.7933

          k =-0.5000-0.5000 0.5000 (   580 PWs)   bands (ev):

    -2.1064  -0.0877  10.6754  10.6754  22.0613  22.0613  22.9258  29.2312

          k =-1.0000 0.0000 0.0000 (   588 PWs)   bands (ev):

     0.7787   0.7787   7.0917   7.0917  18.3661  18.3661  30.5804  30.5804

          k =-1.5000-1.0000 0.0000 (   604 PWs)   bands (ev):

     1.6596   1.6596   4.9661   4.9661  24.1444  24.1444  26.2074  26.2074

          k = 0.0000 1.0000 0.5000 (   604 PWs)   bands (ev):

     1.6596   1.6596   4.9661   4.9661  24.1444  24.1444  26.2074  26.2074

          k =-0.5000 0.0000 0.5000 (   590 PWs)   bands (ev):

    -3.5499   4.8493   5.7778  10.4550  21.5848  23.6645  26.0996  27.7933

          k = 0.5000 1.0000 0.0000 (   604 PWs)   bands (ev):

     1.6596   1.6596   4.9661   4.9661  24.1444  24.1444  26.2074  26.2074

          k = 0.0000 0.0000 0.0000 (   561 PWs)   bands (ev):

    -8.1298  13.5278  13.5278  13.5278  19.1693  19.1693  19.1693  27.5990

     highest occupied, lowest unoccupied level (ev):    13.5278   18.0612

     Writing output data file c.save

                                                                                

     bravais-lattice index     =            2
     lattice parameter (alat)  =       6.6750  a.u.
     unit-cell volume          =      74.3522 (a.u.)^3
     number of atoms/cell      =            2
     number of atomic types    =            1
     kinetic-energy cut-off    =      60.0000  Ry
     charge density cut-off    =     240.0000  Ry
     convergence threshold     =      1.0E-24
     beta                      =       0.7000
     number of iterations used =            4
     Exchange-correlation      = PZ ( 1  1  0  0 0 0)


     celldm(1)=    6.67500  celldm(2)=    0.00000  celldm(3)=    0.00000
     celldm(4)=    0.00000  celldm(5)=    0.00000  celldm(6)=    0.00000

     crystal axes: (cart. coord. in units of alat)
               a(1) = ( -0.5000  0.0000  0.5000 )  
               a(2) = (  0.0000  0.5000  0.5000 )  
               a(3) = ( -0.5000  0.5000  0.0000 )  

     reciprocal axes: (cart. coord. in units 2 pi/alat)
               b(1) = ( -1.0000 -1.0000  1.0000 )  
               b(2) = (  1.0000  1.0000  1.0000 )  
               b(3) = ( -1.0000  1.0000 -1.0000 )  


     Atoms inside the unit cell: 

     Cartesian axes

     site n.  atom      mass           positions (alat units)
        1     C   12.0110   tau(    1) = (    0.00000    0.00000    0.00000  )
        2     C   12.0110   tau(    2) = (   -0.25000    0.25000    0.25000  )

     Computing dynamical matrix for 
                    q = (  -0.5000000  -1.0000000   0.0000000 )
 
      8 Sym.Ops. (no q -> -q+G )


     G cutoff =  270.8657  (     60 G-vectors)     FFT grid: ( 24, 24, 24)
     number of k points=    32

     PseudoPot. # 1 for  C read from file:
     ../C.pz-mt.fhi.UPF
     MD5 check sum: b7c38bc33a0cf75f44be89b84470f298
     Pseudo is Norm-conserving, Zval =  4.0
     Generated using FHI98PP, converted with fhi2upf.x v.5.0.2
     Using radial grid of  461 points,  2 beta functions with: 
                l(1) =   0
                l(2) =   1


     Atomic displacements:
     There are   3 irreducible representations

     Representation     1      2 modes -  To be done

     Representation     2      2 modes -  To be done

     Representation     3      2 modes -  To be done



     Alpha used in Ewald sum =   2.5000
     PHONON       :  2m39.36s CPU     3m 6.51s WALL



     Representation #  1 modes #   1  2

     Self-consistent Calculation

      iter #   1 total cpu time :   187.0 secs   av.it.:   6.4
      thresh= 1.000E-02 alpha_mix =  0.700 |ddv_scf|^2 =  1.860E-06

      iter #   2 total cpu time :   187.5 secs   av.it.:  10.0
      thresh= 1.364E-04 alpha_mix =  0.700 |ddv_scf|^2 =  1.030E-06

      iter #   3 total cpu time :   187.9 secs   av.it.:   9.7
      thresh= 1.015E-04 alpha_mix =  0.700 |ddv_scf|^2 =  3.875E-09

      iter #   4 total cpu time :   188.2 secs   av.it.:   9.7
      thresh= 6.225E-06 alpha_mix =  0.700 |ddv_scf|^2 =  3.927E-12

      iter #   5 total cpu time :   188.8 secs   av.it.:   9.7
      thresh= 1.982E-07 alpha_mix =  0.700 |ddv_scf|^2 =  1.595E-14

      iter #   6 total cpu time :   189.1 secs   av.it.:   9.6
      thresh= 1.263E-08 alpha_mix =  0.700 |ddv_scf|^2 =  4.116E-16

      iter #   7 total cpu time :   189.4 secs   av.it.:   9.7
      thresh= 2.029E-09 alpha_mix =  0.700 |ddv_scf|^2 =  1.549E-18

      iter #   8 total cpu time :   189.6 secs   av.it.:  10.1
      thresh= 1.245E-10 alpha_mix =  0.700 |ddv_scf|^2 =  3.843E-19

      iter #   9 total cpu time :   189.8 secs   av.it.:   9.8
      thresh= 6.199E-11 alpha_mix =  0.700 |ddv_scf|^2 =  2.016E-21

      iter #  10 total cpu time :   190.0 secs   av.it.:   9.8
      thresh= 4.490E-12 alpha_mix =  0.700 |ddv_scf|^2 =  2.837E-23

      iter #  11 total cpu time :   191.5 secs   av.it.:   9.8
      thresh= 5.326E-13 alpha_mix =  0.700 |ddv_scf|^2 =  3.238E-24

      iter #  12 total cpu time :   193.5 secs   av.it.:   9.8
      thresh= 1.800E-13 alpha_mix =  0.700 |ddv_scf|^2 =  6.145E-26

     End of self-consistent calculation

     Convergence has been achieved 


     Representation #  2 modes #   3  4

     Self-consistent Calculation

      iter #   1 total cpu time :   195.9 secs   av.it.:   6.1
      thresh= 1.000E-02 alpha_mix =  0.700 |ddv_scf|^2 =  5.248E-07

      iter #   2 total cpu time :   196.2 secs   av.it.:   9.9
      thresh= 7.244E-05 alpha_mix =  0.700 |ddv_scf|^2 =  5.392E-08

      iter #   3 total cpu time :   196.8 secs   av.it.:   9.8
      thresh= 2.322E-05 alpha_mix =  0.700 |ddv_scf|^2 =  2.220E-11

      iter #   4 total cpu time :   197.3 secs   av.it.:  10.1
      thresh= 4.712E-07 alpha_mix =  0.700 |ddv_scf|^2 =  5.938E-13

      iter #   5 total cpu time :   198.2 secs   av.it.:   9.6
      thresh= 7.706E-08 alpha_mix =  0.700 |ddv_scf|^2 =  4.499E-15

      iter #   6 total cpu time :   199.1 secs   av.it.:   9.8
      thresh= 6.707E-09 alpha_mix =  0.700 |ddv_scf|^2 =  6.216E-18

      iter #   7 total cpu time :   199.7 secs   av.it.:  10.0
      thresh= 2.493E-10 alpha_mix =  0.700 |ddv_scf|^2 =  1.338E-19

      iter #   8 total cpu time :   199.9 secs   av.it.:  10.3
      thresh= 3.657E-11 alpha_mix =  0.700 |ddv_scf|^2 =  4.368E-21

      iter #   9 total cpu time :   200.1 secs   av.it.:  10.1
      thresh= 6.609E-12 alpha_mix =  0.700 |ddv_scf|^2 =  6.018E-23

      iter #  10 total cpu time :   200.3 secs   av.it.:   9.8
      thresh= 7.757E-13 alpha_mix =  0.700 |ddv_scf|^2 =  4.669E-24

      iter #  11 total cpu time :   200.7 secs   av.it.:   9.9
      thresh= 2.161E-13 alpha_mix =  0.700 |ddv_scf|^2 =  3.299E-25

     End of self-consistent calculation

     Convergence has been achieved 


     Representation #  3 modes #   5  6

     Self-consistent Calculation

      iter #   1 total cpu time :   201.1 secs   av.it.:   6.5
      thresh= 1.000E-02 alpha_mix =  0.700 |ddv_scf|^2 =  1.184E-06

      iter #   2 total cpu time :   201.4 secs   av.it.:   9.9
      thresh= 1.088E-04 alpha_mix =  0.700 |ddv_scf|^2 =  1.288E-07

      iter #   3 total cpu time :   201.7 secs   av.it.:   9.8
      thresh= 3.590E-05 alpha_mix =  0.700 |ddv_scf|^2 =  3.681E-11

      iter #   4 total cpu time :   202.0 secs   av.it.:   9.9
      thresh= 6.068E-07 alpha_mix =  0.700 |ddv_scf|^2 =  8.193E-13

      iter #   5 total cpu time :   202.4 secs   av.it.:   9.4
      thresh= 9.052E-08 alpha_mix =  0.700 |ddv_scf|^2 =  2.501E-15

      iter #   6 total cpu time :   202.8 secs   av.it.:   9.8
      thresh= 5.001E-09 alpha_mix =  0.700 |ddv_scf|^2 =  1.738E-17

      iter #   7 total cpu time :   203.1 secs   av.it.:  10.3
      thresh= 4.169E-10 alpha_mix =  0.700 |ddv_scf|^2 =  2.475E-19

      iter #   8 total cpu time :   203.7 secs   av.it.:  10.2
      thresh= 4.975E-11 alpha_mix =  0.700 |ddv_scf|^2 =  7.791E-21

      iter #   9 total cpu time :   204.2 secs   av.it.:   9.8
      thresh= 8.827E-12 alpha_mix =  0.700 |ddv_scf|^2 =  2.254E-23

      iter #  10 total cpu time :   204.6 secs   av.it.:   9.9
      thresh= 4.748E-13 alpha_mix =  0.700 |ddv_scf|^2 =  1.594E-24

      iter #  11 total cpu time :   205.1 secs   av.it.:   9.9
      thresh= 1.263E-13 alpha_mix =  0.700 |ddv_scf|^2 =  6.267E-26

     End of self-consistent calculation

     Convergence has been achieved 
 
     Number of q in the star =    6
     List of q in the star:
          1  -0.500000000  -1.000000000   0.000000000
          2   0.000000000   1.000000000   0.500000000
          3   0.000000000  -1.000000000  -0.500000000
          4   0.500000000   1.000000000   0.000000000
          5  -1.000000000  -0.500000000   0.000000000
          6   0.000000000  -0.500000000  -1.000000000

     Diagonalizing the dynamical matrix

     q = (   -0.500000000  -1.000000000   0.000000000 ) 

 **************************************************************************
     freq (    1) =      27.474000 [THz] =     916.433979 [cm-1]
     freq (    2) =      27.474000 [THz] =     916.433979 [cm-1]
     freq (    3) =      29.854677 [THz] =     995.844835 [cm-1]
     freq (    4) =      29.854677 [THz] =     995.844835 [cm-1]
     freq (    5) =      34.804721 [THz] =    1160.960526 [cm-1]
     freq (    6) =      34.804721 [THz] =    1160.960526 [cm-1]
 **************************************************************************
 
     init_run     :      0.08s CPU      0.24s WALL (       7 calls)
     electrons    :      6.58s CPU      7.10s WALL (       7 calls)

     Called by init_run:
     wfcinit      :      0.00s CPU      0.10s WALL (       7 calls)
     potinit      :      0.03s CPU      0.03s WALL (       7 calls)

     Called by electrons:
     c_bands      :      6.57s CPU      7.06s WALL (       7 calls)
     v_of_rho     :      0.01s CPU      0.02s WALL (       8 calls)

     Called by c_bands:
     init_us_2    :      0.06s CPU      0.07s WALL (   10185 calls)
     cegterg      :      2.80s CPU      2.89s WALL (     292 calls)

     Called by sum_band:

     Called by *egterg:
     h_psi        :     47.50s CPU     49.81s WALL (  119170 calls)
     g_psi        :      0.00s CPU      0.00s WALL (    2730 calls)
     cdiaghg      :      0.59s CPU      0.72s WALL (    3022 calls)

     Called by h_psi:
     h_psi:pot    :     47.34s CPU     49.64s WALL (  119170 calls)
     h_psi:calbec :      3.22s CPU      3.39s WALL (  119170 calls)
     vloc_psi     :     43.45s CPU     45.54s WALL (  119170 calls)
     add_vuspsi   :      0.34s CPU      0.36s WALL (  119170 calls)

     General routines
     calbec       :     10.91s CPU     11.31s WALL (  240286 calls)
     fft          :      0.54s CPU      0.72s WALL (    1697 calls)
     ffts         :      0.32s CPU      0.34s WALL (    1164 calls)
     fftw         :     76.77s CPU     79.66s WALL ( 1086086 calls)
     davcio       :      1.23s CPU      6.70s WALL (   55659 calls)
 
     Parallel routines
     fft_scatter  :     73.11s CPU     75.93s WALL ( 1088947 calls)
 
     PHONON       :  2m55.59s CPU     3m25.54s WALL

     INITIALIZATION: 
     phq_setup    :      0.04s CPU      0.06s WALL (       8 calls)
     phq_init     :      0.67s CPU      0.72s WALL (       8 calls)
 
     phq_init     :      0.67s CPU      0.72s WALL (       8 calls)
     init_vloc    :      0.00s CPU      0.01s WALL (       8 calls)
     init_us_1    :      0.01s CPU      0.02s WALL (       8 calls)
 
     DYNAMICAL MATRIX:
     dynmat0      :      0.34s CPU      0.38s WALL (       8 calls)
     phqscf       :    161.54s CPU    181.50s WALL (       8 calls)
     dynmatrix    :      0.01s CPU      0.05s WALL (       8 calls)
 
     phqscf       :    161.54s CPU    181.50s WALL (       8 calls)
     solve_linter :    157.49s CPU    177.33s WALL (      32 calls)
     drhodv       :      4.02s CPU      4.08s WALL (      32 calls)
 
     dynmat0      :      0.34s CPU      0.38s WALL (       8 calls)
     dynmat_us    :      0.32s CPU      0.34s WALL (       8 calls)
     d2ionq       :      0.01s CPU      0.01s WALL (       8 calls)
 
     dynmat_us    :      0.32s CPU      0.34s WALL (       8 calls)
 
     phqscf       :    161.54s CPU    181.50s WALL (       8 calls)
     solve_linter :    157.49s CPU    177.33s WALL (      32 calls)
 
     solve_linter :    157.49s CPU    177.33s WALL (      32 calls)
     dvqpsi_us    :      0.87s CPU      0.95s WALL (     972 calls)
     ortho        :      3.11s CPU      3.17s WALL (   11157 calls)
     cgsolve      :     59.54s CPU     62.53s WALL (   11157 calls)
     incdrhoscf   :     16.85s CPU     17.21s WALL (   11133 calls)
     vpsifft      :     17.31s CPU     17.82s WALL (   10017 calls)
     dv_of_drho   :      0.31s CPU      0.36s WALL (     555 calls)
     mix_pot      :     37.26s CPU     49.46s WALL (     386 calls)
     psymdvscf    :      2.78s CPU      3.01s WALL (     378 calls)
 
     dvqpsi_us    :      0.87s CPU      0.95s WALL (     972 calls)
     dvqpsi_us_on :      0.02s CPU      0.02s WALL (     972 calls)
 
     cgsolve      :     59.54s CPU     62.53s WALL (   11157 calls)
     ch_psi       :     52.57s CPU     55.20s WALL (  115856 calls)
 
     ch_psi       :     52.57s CPU     55.20s WALL (  115856 calls)
     h_psi        :     47.50s CPU     49.81s WALL (  119170 calls)
     last         :      6.86s CPU      7.24s WALL (  115856 calls)
 
     h_psi        :     47.50s CPU     49.81s WALL (  119170 calls)
     add_vuspsi   :      0.34s CPU      0.36s WALL (  119170 calls)
 
     incdrhoscf   :     16.85s CPU     17.21s WALL (   11133 calls)
 
 
      General routines
     calbec       :     10.91s CPU     11.31s WALL (  240286 calls)
     fft          :      0.54s CPU      0.72s WALL (    1697 calls)
     ffts         :      0.32s CPU      0.34s WALL (    1164 calls)
     fftw         :     76.77s CPU     79.66s WALL ( 1086086 calls)
     davcio       :      1.23s CPU      6.70s WALL (   55659 calls)
     write_rec    :      0.58s CPU      2.61s WALL (     418 calls)
 
 
     PHONON       :  2m55.59s CPU     3m25.54s WALL

 
   This run was terminated on:  10:27:23  18Dec2020            

=------------------------------------------------------------------------------=
   JOB DONE.
=------------------------------------------------------------------------------=
