
     Program PWSCF v.6.1 (svn rev. 13369) starts on 18Dec2020 at  9:21:10 

     This program is part of the open-source Quantum ESPRESSO suite
     for quantum simulation of materials; please cite
         "P. Giannozzi et al., J. Phys.:Condens. Matter 21 395502 (2009);
          URL http://www.quantum-espresso.org", 
     in publications or presentations arising from this work. More details at
     http://www.quantum-espresso.org/quote

     Parallel version (MPI & OpenMP), running on      80 processor cores
     Number of MPI processes:                80
     Threads/MPI process:                     1
     R & G space division:  proc/nbgrp/npool/nimage =      80
     Waiting for input...
     Reading input from standard input

     Current dimensions of program PWSCF are:
     Max number of different atomic species (ntypx) = 10
     Max number of k-points (npk) =  40000
     Max angular momentum in pseudopotentials (lmaxx) =  3

     IMPORTANT: XC functional enforced from input :
     Exchange-correlation      = PZ ( 1  1  0  0 0 0)
     Any further DFT definition will be discarded
     Please, verify this is what you really want

               file C.pz-mt.fhi.UPF: wavefunction(s)  3d renormalized

     Subspace diagonalization in iterative solution of the eigenvalue problem:
     one sub-group per band group will be used
     scalapack distributed-memory algorithm (size of sub-group:  6*  6 procs)

 
     Parallelization info
     --------------------
     sticks:   dense  smooth     PW     G-vecs:    dense   smooth      PW
     Min           4       4      1                   56       56       9
     Max           5       5      2                   60       60      14
     Sum         367     367    121                 4645     4645     941
 


     bravais-lattice index     =            2
     lattice parameter (alat)  =       6.6750  a.u.
     unit-cell volume          =      74.3522 (a.u.)^3
     number of atoms/cell      =            2
     number of atomic types    =            1
     number of electrons       =         8.00
     number of Kohn-Sham states=            8
     kinetic-energy cutoff     =      60.0000  Ry
     charge density cutoff     =     240.0000  Ry
     convergence threshold     =      1.0E-15
     mixing beta               =       0.7000
     number of iterations used =            8  plain     mixing
     Exchange-correlation      = PZ ( 1  1  0  0 0 0)

     celldm(1)=   6.675000  celldm(2)=   0.000000  celldm(3)=   0.000000
     celldm(4)=   0.000000  celldm(5)=   0.000000  celldm(6)=   0.000000

     crystal axes: (cart. coord. in units of alat)
               a(1) = (  -0.500000   0.000000   0.500000 )  
               a(2) = (   0.000000   0.500000   0.500000 )  
               a(3) = (  -0.500000   0.500000   0.000000 )  

     reciprocal axes: (cart. coord. in units 2 pi/alat)
               b(1) = ( -1.000000 -1.000000  1.000000 )  
               b(2) = (  1.000000  1.000000  1.000000 )  
               b(3) = ( -1.000000  1.000000 -1.000000 )  


     PseudoPot. # 1 for  C read from file:
     ../C.pz-mt.fhi.UPF
     MD5 check sum: b7c38bc33a0cf75f44be89b84470f298
     Pseudo is Norm-conserving, Zval =  4.0
     Generated using FHI98PP, converted with fhi2upf.x v.5.0.2
     Using radial grid of  461 points,  2 beta functions with: 
                l(1) =   0
                l(2) =   1

     atomic species   valence    mass     pseudopotential
        C              4.00    12.01100      C( 1.00)

     48 Sym. Ops., with inversion, found (24 have fractional translation)



   Cartesian axes

     site n.     atom                  positions (alat units)
         1           C   tau(   1) = (   0.0000000   0.0000000   0.0000000  )
         2           C   tau(   2) = (  -0.2500000   0.2500000   0.2500000  )

     number of k points=    72
                       cart. coord. in units 2pi/alat
        k(    1) = (   0.0000000   0.0000000   0.0000000), wk =   0.0011574
        k(    2) = (  -0.0833333   0.0833333  -0.0833333), wk =   0.0092593
        k(    3) = (  -0.1666667   0.1666667  -0.1666667), wk =   0.0092593
        k(    4) = (  -0.2500000   0.2500000  -0.2500000), wk =   0.0092593
        k(    5) = (  -0.3333333   0.3333333  -0.3333333), wk =   0.0092593
        k(    6) = (  -0.4166667   0.4166667  -0.4166667), wk =   0.0092593
        k(    7) = (   0.5000000  -0.5000000   0.5000000), wk =   0.0046296
        k(    8) = (   0.0000000   0.1666667   0.0000000), wk =   0.0069444
        k(    9) = (  -0.0833333   0.2500000  -0.0833333), wk =   0.0277778
        k(   10) = (  -0.1666667   0.3333333  -0.1666667), wk =   0.0277778
        k(   11) = (  -0.2500000   0.4166667  -0.2500000), wk =   0.0277778
        k(   12) = (  -0.3333333   0.5000000  -0.3333333), wk =   0.0277778
        k(   13) = (   0.5833333  -0.4166667   0.5833333), wk =   0.0277778
        k(   14) = (   0.5000000  -0.3333333   0.5000000), wk =   0.0277778
        k(   15) = (   0.4166667  -0.2500000   0.4166667), wk =   0.0277778
        k(   16) = (   0.3333333  -0.1666667   0.3333333), wk =   0.0277778
        k(   17) = (   0.2500000  -0.0833333   0.2500000), wk =   0.0277778
        k(   18) = (   0.1666667  -0.0000000   0.1666667), wk =   0.0138889
        k(   19) = (   0.0000000   0.3333333   0.0000000), wk =   0.0069444
        k(   20) = (  -0.0833333   0.4166667  -0.0833333), wk =   0.0277778
        k(   21) = (  -0.1666667   0.5000000  -0.1666667), wk =   0.0277778
        k(   22) = (  -0.2500000   0.5833333  -0.2500000), wk =   0.0277778
        k(   23) = (   0.6666667  -0.3333333   0.6666667), wk =   0.0277778
        k(   24) = (   0.5833333  -0.2500000   0.5833333), wk =   0.0277778
        k(   25) = (   0.5000000  -0.1666667   0.5000000), wk =   0.0277778
        k(   26) = (   0.4166667  -0.0833333   0.4166667), wk =   0.0277778
        k(   27) = (   0.3333333   0.0000000   0.3333333), wk =   0.0138889
        k(   28) = (   0.0000000   0.5000000   0.0000000), wk =   0.0069444
        k(   29) = (  -0.0833333   0.5833333  -0.0833333), wk =   0.0277778
        k(   30) = (  -0.1666667   0.6666667  -0.1666667), wk =   0.0277778
        k(   31) = (   0.7500000  -0.2500000   0.7500000), wk =   0.0277778
        k(   32) = (   0.6666667  -0.1666667   0.6666667), wk =   0.0277778
        k(   33) = (   0.5833333  -0.0833333   0.5833333), wk =   0.0277778
        k(   34) = (   0.5000000   0.0000000   0.5000000), wk =   0.0138889
        k(   35) = (   0.0000000   0.6666667   0.0000000), wk =   0.0069444
        k(   36) = (  -0.0833333   0.7500000  -0.0833333), wk =   0.0277778
        k(   37) = (   0.8333333  -0.1666667   0.8333333), wk =   0.0277778
        k(   38) = (   0.7500000  -0.0833333   0.7500000), wk =   0.0277778
        k(   39) = (   0.6666667  -0.0000000   0.6666667), wk =   0.0138889
        k(   40) = (   0.0000000   0.8333333   0.0000000), wk =   0.0069444
        k(   41) = (   0.9166667  -0.0833333   0.9166667), wk =   0.0277778
        k(   42) = (   0.8333333   0.0000000   0.8333333), wk =   0.0138889
        k(   43) = (   0.0000000  -1.0000000   0.0000000), wk =   0.0034722
        k(   44) = (  -0.1666667   0.3333333   0.0000000), wk =   0.0277778
        k(   45) = (  -0.2500000   0.4166667  -0.0833333), wk =   0.0555556
        k(   46) = (  -0.3333333   0.5000000  -0.1666667), wk =   0.0555556
        k(   47) = (   0.5833333  -0.4166667   0.7500000), wk =   0.0555556
        k(   48) = (   0.5000000  -0.3333333   0.6666667), wk =   0.0277778
        k(   49) = (  -0.1666667   0.5000000   0.0000000), wk =   0.0277778
        k(   50) = (  -0.2500000   0.5833333  -0.0833333), wk =   0.0555556
        k(   51) = (   0.6666667  -0.3333333   0.8333333), wk =   0.0555556
        k(   52) = (   0.5833333  -0.2500000   0.7500000), wk =   0.0555556
        k(   53) = (   0.5000000  -0.1666667   0.6666667), wk =   0.0555556
        k(   54) = (   0.4166667  -0.0833333   0.5833333), wk =   0.0555556
        k(   55) = (   0.3333333   0.0000000   0.5000000), wk =   0.0277778
        k(   56) = (  -0.1666667   0.6666667  -0.0000000), wk =   0.0277778
        k(   57) = (   0.7500000  -0.2500000   0.9166667), wk =   0.0555556
        k(   58) = (   0.6666667  -0.1666667   0.8333333), wk =   0.0555556
        k(   59) = (   0.5833333  -0.0833333   0.7500000), wk =   0.0555556
        k(   60) = (   0.5000000   0.0000000   0.6666667), wk =   0.0277778
        k(   61) = (   0.8333333  -0.1666667   1.0000000), wk =   0.0277778
        k(   62) = (   0.7500000  -0.0833333   0.9166667), wk =   0.0555556
        k(   63) = (   0.6666667   0.0000000   0.8333333), wk =   0.0277778
        k(   64) = (  -0.1666667  -1.0000000  -0.0000000), wk =   0.0138889
        k(   65) = (   0.6666667  -0.3333333   1.0000000), wk =   0.0277778
        k(   66) = (   0.5833333  -0.2500000   0.9166667), wk =   0.0555556
        k(   67) = (   0.5000000  -0.1666667   0.8333333), wk =   0.0277778
        k(   68) = (   0.6666667  -0.1666667   1.0000000), wk =   0.0277778
        k(   69) = (   0.5833333  -0.0833333   0.9166667), wk =   0.0555556
        k(   70) = (   0.5000000   0.0000000   0.8333333), wk =   0.0277778
        k(   71) = (  -0.3333333  -1.0000000   0.0000000), wk =   0.0138889
        k(   72) = (  -0.5000000  -1.0000000   0.0000000), wk =   0.0069444

     Dense  grid:     4645 G-vectors     FFT dimensions: (  24,  24,  24)

     Estimated max dynamical RAM per process >       0.16MB

     Estimated total allocated dynamical RAM >      12.76MB
     Message from routine sym_rho_init:
     some processors have no G-vectors for symmetrization
     Message from routine sym_rho_init:
     some processors have no G-vectors for symmetrization
     Message from routine sym_rho_init:
     some processors have no G-vectors for symmetrization
     Message from routine sym_rho_init:
     some processors have no G-vectors for symmetrization
     Message from routine sym_rho_init:
     some processors have no G-vectors for symmetrization
     Message from routine sym_rho_init:
     some processors have no G-vectors for symmetrization
     Message from routine sym_rho_init:
     some processors have no G-vectors for symmetrization
     Message from routine sym_rho_init:
     some processors have no G-vectors for symmetrization
     Message from routine sym_rho_init:
     some processors have no G-vectors for symmetrization
     Message from routine sym_rho_init:
     some processors have no G-vectors for symmetrization
     Message from routine sym_rho_init:
     some processors have no G-vectors for symmetrization
     Message from routine sym_rho_init:
     some processors have no G-vectors for symmetrization
     Message from routine sym_rho_init:
     some processors have no G-vectors for symmetrization
     Message from routine sym_rho_init:
     some processors have no G-vectors for symmetrization
     Message from routine sym_rho_init:
     some processors have no G-vectors for symmetrization
     Message from routine sym_rho_init:
     some processors have no G-vectors for symmetrization
     Message from routine sym_rho_init:
     some processors have no G-vectors for symmetrization
     Message from routine sym_rho_init:
     some processors have no G-vectors for symmetrization
     Message from routine sym_rho_init:
     some processors have no G-vectors for symmetrization
     Message from routine sym_rho_init:
     some processors have no G-vectors for symmetrization
     Message from routine sym_rho_init:
     some processors have no G-vectors for symmetrization
     Message from routine sym_rho_init:
     some processors have no G-vectors for symmetrization
     Message from routine sym_rho_init:
     some processors have no G-vectors for symmetrization
     Message from routine sym_rho_init:
     some processors have no G-vectors for symmetrization
     Message from routine sym_rho_init:
     some processors have no G-vectors for symmetrization
     Message from routine sym_rho_init:
     some processors have no G-vectors for symmetrization
     Message from routine sym_rho_init:
     some processors have no G-vectors for symmetrization
     Message from routine sym_rho_init:
     some processors have no G-vectors for symmetrization
     Message from routine sym_rho_init:
     some processors have no G-vectors for symmetrization
     Message from routine sym_rho_init:
     some processors have no G-vectors for symmetrization
     Message from routine sym_rho_init:
     some processors have no G-vectors for symmetrization
     Message from routine sym_rho_init:
     some processors have no G-vectors for symmetrization
     Message from routine sym_rho_init:
     some processors have no G-vectors for symmetrization
     Message from routine sym_rho_init:
     some processors have no G-vectors for symmetrization
     Message from routine sym_rho_init:
     some processors have no G-vectors for symmetrization
     Message from routine sym_rho_init:
     some processors have no G-vectors for symmetrization
     Message from routine sym_rho_init:
     some processors have no G-vectors for symmetrization
     Message from routine sym_rho_init:
     some processors have no G-vectors for symmetrization
     Message from routine sym_rho_init:
     some processors have no G-vectors for symmetrization
     Message from routine sym_rho_init:
     some processors have no G-vectors for symmetrization
     Message from routine sym_rho_init:
     some processors have no G-vectors for symmetrization
     Message from routine sym_rho_init:
     some processors have no G-vectors for symmetrization
     Message from routine sym_rho_init:
     some processors have no G-vectors for symmetrization
     Message from routine sym_rho_init:
     some processors have no G-vectors for symmetrization
     Message from routine sym_rho_init:
     some processors have no G-vectors for symmetrization
     Message from routine sym_rho_init:
     some processors have no G-vectors for symmetrization
     Message from routine sym_rho_init:
     some processors have no G-vectors for symmetrization
     Message from routine sym_rho_init:
     some processors have no G-vectors for symmetrization
     Message from routine sym_rho_init:
     some processors have no G-vectors for symmetrization

     Initial potential from superposition of free atoms

     starting charge    7.99993, renormalised to    8.00000
     Starting wfc are   18 randomized atomic wfcs

     total cpu time spent up to now is        2.0 secs

     per-process dynamical memory:    32.9 Mb

     Self-consistent Calculation

     iteration #  1     ecut=    60.00 Ry     beta=0.70
     Davidson diagonalization with overlap
     ethr =  1.00E-02,  avg # of iterations =  2.9

     total cpu time spent up to now is        3.7 secs

     total energy              =     -22.87717819 Ry
     Harris-Foulkes estimate   =     -22.94727660 Ry
     estimated scf accuracy    <       0.13310775 Ry

     iteration #  2     ecut=    60.00 Ry     beta=0.70
     Davidson diagonalization with overlap
     ethr =  1.66E-03,  avg # of iterations =  2.0

     total cpu time spent up to now is        5.1 secs

     total energy              =     -22.88855292 Ry
     Harris-Foulkes estimate   =     -22.88910311 Ry
     estimated scf accuracy    <       0.00189838 Ry

     iteration #  3     ecut=    60.00 Ry     beta=0.70
     Davidson diagonalization with overlap
     ethr =  2.37E-05,  avg # of iterations =  2.2

     total cpu time spent up to now is        6.8 secs

     total energy              =     -22.88880627 Ry
     Harris-Foulkes estimate   =     -22.88882038 Ry
     estimated scf accuracy    <       0.00008265 Ry

     iteration #  4     ecut=    60.00 Ry     beta=0.70
     Davidson diagonalization with overlap
     ethr =  1.03E-06,  avg # of iterations =  2.0

     total cpu time spent up to now is        8.5 secs

     total energy              =     -22.88880861 Ry
     Harris-Foulkes estimate   =     -22.88880933 Ry
     estimated scf accuracy    <       0.00000174 Ry

     iteration #  5     ecut=    60.00 Ry     beta=0.70
     Davidson diagonalization with overlap
     ethr =  2.18E-08,  avg # of iterations =  2.6

     total cpu time spent up to now is       10.7 secs

     total energy              =     -22.88880877 Ry
     Harris-Foulkes estimate   =     -22.88880877 Ry
     estimated scf accuracy    <          9.3E-10 Ry

     iteration #  6     ecut=    60.00 Ry     beta=0.70
     Davidson diagonalization with overlap
     ethr =  1.17E-11,  avg # of iterations =  3.6

     total cpu time spent up to now is       14.1 secs

     total energy              =     -22.88880878 Ry
     Harris-Foulkes estimate   =     -22.88880878 Ry
     estimated scf accuracy    <          1.3E-10 Ry

     iteration #  7     ecut=    60.00 Ry     beta=0.70
     Davidson diagonalization with overlap
     ethr =  1.67E-12,  avg # of iterations =  2.3

     total cpu time spent up to now is       16.5 secs

     total energy              =     -22.88880878 Ry
     Harris-Foulkes estimate   =     -22.88880878 Ry
     estimated scf accuracy    <          4.0E-13 Ry

     iteration #  8     ecut=    60.00 Ry     beta=0.70
     Davidson diagonalization with overlap
     ethr =  1.00E-13,  avg # of iterations =  1.5

     total cpu time spent up to now is       18.7 secs

     total energy              =     -22.88880878 Ry
     Harris-Foulkes estimate   =     -22.88880878 Ry
     estimated scf accuracy    <          6.5E-14 Ry

     iteration #  9     ecut=    60.00 Ry     beta=0.70
     Davidson diagonalization with overlap
     ethr =  1.00E-13,  avg # of iterations =  1.0

     total cpu time spent up to now is       20.7 secs

     total energy              =     -22.88880878 Ry
     Harris-Foulkes estimate   =     -22.88880878 Ry
     estimated scf accuracy    <          2.0E-15 Ry

     iteration # 10     ecut=    60.00 Ry     beta=0.70
     Davidson diagonalization with overlap
     ethr =  1.00E-13,  avg # of iterations =  1.0

     total cpu time spent up to now is       22.8 secs

     total energy              =     -22.88880878 Ry
     Harris-Foulkes estimate   =     -22.88880878 Ry
     estimated scf accuracy    <          1.1E-15 Ry

     iteration # 11     ecut=    60.00 Ry     beta=0.70
     Davidson diagonalization with overlap
     ethr =  1.00E-13,  avg # of iterations =  1.0

     total cpu time spent up to now is       25.2 secs

     End of self-consistent calculation

          k = 0.0000 0.0000 0.0000 (   561 PWs)   bands (ev):

    -8.1298  13.5278  13.5278  13.5278  19.1693  19.1693  19.1693  27.5990

          k =-0.0833 0.0833-0.0833 (   576 PWs)   bands (ev):

    -7.9329  12.2976  13.1975  13.1975  19.6012  19.6012  19.9178  27.7134

          k =-0.1667 0.1667-0.1667 (   576 PWs)   bands (ev):

    -7.3449   9.7566  12.4825  12.4825  20.5367  20.5367  21.1064  28.0476

          k =-0.2500 0.2500-0.2500 (   580 PWs)   bands (ev):

    -6.3738   6.9008  11.7466  11.7466  21.4033  21.4033  21.9943  28.5158

          k =-0.3333 0.3333-0.3333 (   589 PWs)   bands (ev):

    -5.0386   4.0882  11.1635  11.1635  21.8890  21.8890  22.5412  28.9420

          k =-0.4167 0.4167-0.4167 (   589 PWs)   bands (ev):

    -3.4019   1.5230  10.7988  10.7988  22.0415  22.0415  22.8337  29.1732

          k = 0.5000-0.5000 0.5000 (   580 PWs)   bands (ev):

    -2.1064  -0.0877  10.6754  10.6754  22.0613  22.0613  22.9258  29.2312

          k = 0.0000 0.1667 0.0000 (   569 PWs)   bands (ev):

    -7.8673  12.5935  12.5935  12.9422  18.9810  20.3247  20.3247  27.6474

          k =-0.0833 0.2500-0.0833 (   571 PWs)   bands (ev):

    -7.4099  10.6219  11.7736  12.5951  19.2874  21.4165  21.4686  27.5905

          k =-0.1667 0.3333-0.1667 (   579 PWs)   bands (ev):

    -6.5668   7.9177  11.0396  11.9190  20.1563  22.3744  22.4382  27.6101

          k =-0.2500 0.4167-0.2500 (   590 PWs)   bands (ev):

    -5.3522   5.1183  10.5259  11.1574  20.9421  22.8768  23.0545  27.9563

          k =-0.3333 0.5000-0.3333 (   585 PWs)   bands (ev):

    -3.8060   2.4756  10.2819  10.5022  21.3973  22.9184  23.3908  28.6324

          k = 0.5833-0.4167 0.5833 (   583 PWs)   bands (ev):

    -2.1819   0.3379  10.0418  10.3173  21.6861  22.7107  23.5193  29.1764

          k = 0.5000-0.3333 0.5000 (   584 PWs)   bands (ev):

    -2.6759   0.9369   9.8238  10.6182  21.9804  22.4137  23.4647  29.2153

          k = 0.4167-0.2500 0.4167 (   586 PWs)   bands (ev):

    -4.3535   3.3316   9.8750  11.1526  22.0133  22.2487  23.2047  28.7721

          k = 0.3333-0.1667 0.3333 (   585 PWs)   bands (ev):

    -5.7972   6.0524  10.2054  11.8617  21.3728  22.2635  22.6577  28.2236

          k = 0.2500-0.0833 0.2500 (   572 PWs)   bands (ev):

    -6.8901   8.8544  10.8046  12.6277  20.4800  21.6604  21.8691  27.9231

          k = 0.1667-0.0000 0.1667 (   573 PWs)   bands (ev):

    -7.6057  11.2917  11.7458  13.1977  19.6973  20.5359  20.8968  27.8007

          k = 0.0000 0.3333 0.0000 (   572 PWs)   bands (ev):

    -7.0843  10.8949  10.8949  11.3713  18.5326  22.6697  22.6697  26.6274

          k =-0.0833 0.4167-0.0833 (   576 PWs)   bands (ev):

    -6.3722   8.8574  10.1286  10.8827  18.8033  23.8148  23.8262  25.6972

          k =-0.1667 0.5000-0.1667 (   591 PWs)   bands (ev):

    -5.2856   6.2794   9.6080  10.1082  19.6383  24.5247  24.5683  25.4787

          k =-0.2500 0.5833-0.2500 (   585 PWs)   bands (ev):

    -3.8529   3.6900   9.2458   9.3870  20.3001  24.6544  24.9796  26.3537

          k = 0.6667-0.3333 0.6667 (   588 PWs)   bands (ev):

    -2.1970   1.3759   8.5111   9.4782  20.7171  24.3749  25.1524  27.9424

          k = 0.5833-0.2500 0.5833 (   582 PWs)   bands (ev):

    -1.7233   0.8157   8.0104   9.8663  21.1618  23.8772  25.1348  29.1180

          k = 0.5000-0.1667 0.5000 (   583 PWs)   bands (ev):

    -3.3180   2.9067   7.8002  10.5081  21.7148  23.2058  24.9014  28.6777

          k = 0.4167-0.0833 0.4167 (   585 PWs)   bands (ev):

    -4.8473   5.4602   7.9213  11.3178  22.2230  22.2986  24.2543  27.7851

          k = 0.3333 0.0000 0.3333 (   580 PWs)   bands (ev):

    -6.0523   7.8483   8.6293  12.1277  21.2424  22.3517  23.0396  27.6026

          k = 0.0000 0.5000 0.0000 (   576 PWs)   bands (ev):

    -5.7928   9.1281   9.3124   9.3124  18.0612  23.9421  25.2733  25.2733

          k =-0.0833 0.5833-0.0833 (   580 PWs)   bands (ev):

    -4.8379   7.1447   8.7405   8.7422  18.3936  22.9929  26.3093  26.3349

          k =-0.1667 0.6667-0.1667 (   587 PWs)   bands (ev):

    -3.5310   4.9012   7.7274   8.4781  19.1772  23.3296  26.7038  26.9272

          k = 0.7500-0.2500 0.7500 (   584 PWs)   bands (ev):

    -1.9453   2.6825   6.7228   8.5456  19.6917  25.0913  26.5064  27.1791

          k = 0.6667-0.1667 0.6667 (   583 PWs)   bands (ev):

    -0.7537   1.2960   5.9581   8.9331  20.1646  25.8912  27.1847  27.5402

          k = 0.5833-0.0833 0.5833 (   585 PWs)   bands (ev):

    -1.9791   2.8131   5.5326   9.5996  20.8107  24.9375  27.0505  28.6768

          k = 0.5000 0.0000 0.5000 (   590 PWs)   bands (ev):

    -3.5499   4.8493   5.7778  10.4550  21.5848  23.6645  26.0996  27.7933

          k = 0.0000 0.6667 0.0000 (   576 PWs)   bands (ev):

    -4.0170   6.4579   8.0993   8.0993  17.7772  21.3545  27.7696  27.7696

          k =-0.0833 0.7500-0.0833 (   587 PWs)   bands (ev):

    -2.8420   4.9359   7.1744   7.7646  18.2292  20.8419  28.5569  28.6409

          k = 0.8333-0.1667 0.8333 (   588 PWs)   bands (ev):

    -1.3647   3.3814   5.6977   7.7669  18.8780  21.9858  28.5643  29.0146

          k = 0.7500-0.0833 0.7500 (   585 PWs)   bands (ev):

     0.1049   2.0277   4.4026   8.1039  19.3296  24.4901  27.8861  29.0786

          k = 0.6667-0.0000 0.6667 (   578 PWs)   bands (ev):

    -0.4746   2.6119   3.9199   8.7419  19.9601  26.6266  27.2971  28.8558

          k = 0.0000 0.8333 0.0000 (   592 PWs)   bands (ev):

    -1.8013   3.5953   7.3463   7.3463  17.8359  19.4970  29.7622  29.7622

          k = 0.9167-0.0833 0.9167 (   595 PWs)   bands (ev):

    -0.4482   2.2265   6.5225   7.2643  18.3840  19.5126  30.0446  30.1968

          k = 0.8333 0.0000 0.8333 (   586 PWs)   bands (ev):

     0.9279   1.2402   5.0546   7.5251  18.7778  21.5361  29.3736  30.0196

          k = 0.0000-1.0000 0.0000 (   588 PWs)   bands (ev):

     0.7787   0.7787   7.0917   7.0917  18.3661  18.3661  30.5804  30.5804

          k =-0.1667 0.3333 0.0000 (   579 PWs)   bands (ev):

    -6.8251   9.5350  10.1359  12.1847  19.5335  22.4679  22.6251  27.0880

          k =-0.2500 0.4167-0.0833 (   579 PWs)   bands (ev):

    -5.8598   7.1261   9.2920  11.5055  20.4103  22.9937  23.7757  26.8158

          k =-0.3333 0.5000-0.1667 (   585 PWs)   bands (ev):

    -4.5346   4.4525   8.9053  10.7088  21.2317  23.0220  24.5274  27.3434

          k = 0.5833-0.4167 0.7500 (   584 PWs)   bands (ev):

    -2.9160   1.9624   8.7842  10.0539  21.6463  22.8607  24.8857  28.4564

          k = 0.5000-0.3333 0.6667 (   586 PWs)   bands (ev):

    -1.6506   0.3978   8.7939   9.7758  21.7520  22.7784  24.9889  29.1140

          k =-0.1667 0.5000 0.0000 (   583 PWs)   bands (ev):

    -5.5385   7.8130   8.6086  10.2704  19.1079  24.3903  24.8148  25.2663

          k =-0.2500 0.5833-0.0833 (   586 PWs)   bands (ev):

    -4.3405   5.6361   7.8763   9.5024  20.0295  24.1607  25.1318  26.3727

          k = 0.6667-0.3333 0.8333 (   582 PWs)   bands (ev):

    -2.8237   3.2383   7.5075   8.8504  20.7117  24.2987  25.9640  27.0047

          k = 0.5833-0.2500 0.7500 (   581 PWs)   bands (ev):

    -1.2575   1.2459   7.1060   8.7442  21.1279  24.0843  26.9080  27.9530

          k = 0.5000-0.1667 0.6667 (   580 PWs)   bands (ev):

    -1.7385   1.8334   6.7536   9.1688  21.6080  23.5863  26.7860  28.5534

          k = 0.4167-0.0833 0.5833 (   584 PWs)   bands (ev):

    -3.3666   4.0829   6.6583   9.9140  22.1812  22.7870  26.3417  27.2733

          k = 0.3333 0.0000 0.5000 (   586 PWs)   bands (ev):

    -4.7825   6.2799   7.1738  10.7870  21.4677  22.8783  25.3311  26.4880

          k =-0.1667 0.6667-0.0000 (   581 PWs)   bands (ev):

    -3.7725   5.9910   7.4397   8.2450  18.8358  22.1911  26.7892  27.8030

          k = 0.7500-0.2500 0.9167 (   586 PWs)   bands (ev):

    -2.3768   4.2728   6.4331   7.6925  19.7640  22.6788  26.7867  28.6346

          k = 0.6667-0.1667 0.8333 (   582 PWs)   bands (ev):

    -0.7887   2.4247   5.4571   7.7257  20.2930  24.6523  26.5026  28.7073

          k = 0.5833-0.0833 0.7500 (   582 PWs)   bands (ev):

    -0.3998   2.0618   4.7616   8.2019  20.8084  25.5622  27.4125  28.1497

          k = 0.5000 0.0000 0.6667 (   580 PWs)   bands (ev):

    -1.9021   3.6622   4.7591   8.9835  21.5114  24.3255  27.3832  28.1445

          k = 0.8333-0.1667 1.0000 (   588 PWs)   bands (ev):

    -1.5776   3.6143   6.7355   6.9914  18.8833  20.4415  28.8093  29.6878

          k = 0.7500-0.0833 0.9167 (   585 PWs)   bands (ev):

    -0.0657   2.3703   5.3077   6.9694  19.6721  21.7378  28.5812  29.6365

          k = 0.6667 0.0000 0.8333 (   580 PWs)   bands (ev):

     0.7705   1.8635   4.0594   7.4271  20.1362  24.4431  27.6478  28.8485

          k =-0.1667-1.0000-0.0000 (   592 PWs)   bands (ev):

     0.9506   0.9506   6.5584   6.5584  19.3775  19.3775  30.0613  30.0613

          k = 0.6667-0.3333 1.0000 (   583 PWs)   bands (ev):

    -3.0511   4.8917   6.0736   8.6261  21.3469  23.4980  25.3473  27.9166

          k = 0.5833-0.2500 0.9167 (   579 PWs)   bands (ev):

    -1.4951   3.0692   5.6346   7.8017  22.2586  23.5629  26.0679  28.5806

          k = 0.5000-0.1667 0.8333 (   584 PWs)   bands (ev):

    -0.3120   1.6928   5.6326   7.4509  22.3233  23.7967  27.5833  27.7746

          k = 0.6667-0.1667 1.0000 (   582 PWs)   bands (ev):

    -0.9355   3.4202   5.4703   6.5552  21.4223  22.6600  26.5312  29.2480

          k = 0.5833-0.0833 0.9167 (   590 PWs)   bands (ev):

     0.5097   2.2717   4.6536   6.2606  22.2033  24.3862  26.2721  27.9778

          k = 0.5000 0.0000 0.8333 (   586 PWs)   bands (ev):

    -0.0079   2.7101   4.3484   6.8200  22.6335  24.5119  26.4997  27.6104

          k =-0.3333-1.0000 0.0000 (   584 PWs)   bands (ev):

     1.3760   1.3760   5.5185   5.5185  21.8402  21.8402  28.2976  28.2976

          k =-0.5000-1.0000 0.0000 (   604 PWs)   bands (ev):

     1.6596   1.6596   4.9661   4.9661  24.1444  24.1444  26.2074  26.2074

     highest occupied, lowest unoccupied level (ev):    13.5278   17.7772

!    total energy              =     -22.88880878 Ry
     Harris-Foulkes estimate   =     -22.88880878 Ry
     estimated scf accuracy    <          7.9E-17 Ry

     The total energy is the sum of the following terms:

     one-electron contribution =       8.15829548 Ry
     hartree contribution      =       1.89493655 Ry
     xc contribution           =      -7.11769063 Ry
     ewald contribution        =     -25.82435018 Ry

     convergence has been achieved in  11 iterations

     Writing output data file c.save
 
     init_run     :      1.30s CPU      1.63s WALL (       1 calls)
     electrons    :     22.91s CPU     23.19s WALL (       1 calls)

     Called by init_run:
     wfcinit      :      0.71s CPU      0.79s WALL (       1 calls)
     potinit      :      0.01s CPU      0.08s WALL (       1 calls)

     Called by electrons:
     c_bands      :     22.34s CPU     22.51s WALL (      11 calls)
     sum_band     :      0.50s CPU      0.52s WALL (      11 calls)
     v_of_rho     :      0.01s CPU      0.03s WALL (      12 calls)
     mix_rho      :      0.03s CPU      0.04s WALL (      11 calls)

     Called by c_bands:
     init_us_2    :      0.01s CPU      0.01s WALL (    1656 calls)
     cegterg      :     22.19s CPU     22.36s WALL (     792 calls)

     Called by sum_band:

     Called by *egterg:
     h_psi        :      2.54s CPU      2.61s WALL (    2454 calls)
     g_psi        :      0.00s CPU      0.00s WALL (    1590 calls)
     cdiaghg      :     11.14s CPU     11.21s WALL (    2382 calls)

     Called by h_psi:
     h_psi:pot    :      2.54s CPU      2.61s WALL (    2454 calls)
     h_psi:calbec :      0.21s CPU      0.23s WALL (    2454 calls)
     vloc_psi     :      2.31s CPU      2.35s WALL (    2454 calls)
     add_vuspsi   :      0.01s CPU      0.02s WALL (    2454 calls)

     General routines
     calbec       :      0.21s CPU      0.21s WALL (    2454 calls)
     fft          :      0.39s CPU      0.50s WALL (      47 calls)
     fftw         :      2.71s CPU      2.76s WALL (   40062 calls)
 
     Parallel routines
     fft_scatter  :      2.91s CPU      3.05s WALL (   40109 calls)
 
     PWSCF        :    27.99s CPU        33.31s WALL

 
   This run was terminated on:   9:21:44  18Dec2020            

=------------------------------------------------------------------------------=
   JOB DONE.
=------------------------------------------------------------------------------=
