
     Program PWSCF v.6.1 (svn rev. 13369) starts on 17Dec2020 at  9:30:15 

     This program is part of the open-source Quantum ESPRESSO suite
     for quantum simulation of materials; please cite
         "P. Giannozzi et al., J. Phys.:Condens. Matter 21 395502 (2009);
          URL http://www.quantum-espresso.org", 
     in publications or presentations arising from this work. More details at
     http://www.quantum-espresso.org/quote

     Parallel version (MPI & OpenMP), running on      40 processor cores
     Number of MPI processes:                40
     Threads/MPI process:                     1
     R & G space division:  proc/nbgrp/npool/nimage =      40
     Waiting for input...
     Reading input from standard input

     Current dimensions of program PWSCF are:
     Max number of different atomic species (ntypx) = 10
     Max number of k-points (npk) =  40000
     Max angular momentum in pseudopotentials (lmaxx) =  3

     Atomic positions and unit cell read from directory:
     ./c.save/
 

     IMPORTANT: XC functional enforced from input :
     Exchange-correlation      = PZ ( 1  1  0  0 0 0)
     Any further DFT definition will be discarded
     Please, verify this is what you really want

               file C.pz-mt.fhi.UPF: wavefunction(s)  3d renormalized

     Subspace diagonalization in iterative solution of the eigenvalue problem:
     one sub-group per band group will be used
     scalapack distributed-memory algorithm (size of sub-group:  4*  4 procs)

 
     Parallelization info
     --------------------
     sticks:   dense  smooth     PW     G-vecs:    dense   smooth      PW
     Min           7       7      2                   88       88      16
     Max           8       8      3                   93       93      20
     Sum         313     313    109                 3647     3647     701
 


     bravais-lattice index     =            2
     lattice parameter (alat)  =       6.7034  a.u.
     unit-cell volume          =      75.3061 (a.u.)^3
     number of atoms/cell      =            2
     number of atomic types    =            1
     number of electrons       =         8.00
     number of Kohn-Sham states=            8
     kinetic-energy cutoff     =      50.0000  Ry
     charge density cutoff     =     200.0000  Ry
     Exchange-correlation      = PZ ( 1  1  0  0 0 0)

     celldm(1)=   6.703426  celldm(2)=   0.000000  celldm(3)=   0.000000
     celldm(4)=   0.000000  celldm(5)=   0.000000  celldm(6)=   0.000000

     crystal axes: (cart. coord. in units of alat)
               a(1) = (  -0.500000   0.000000   0.500000 )  
               a(2) = (   0.000000   0.500000   0.500000 )  
               a(3) = (  -0.500000   0.500000   0.000000 )  

     reciprocal axes: (cart. coord. in units 2 pi/alat)
               b(1) = ( -1.000000 -1.000000  1.000000 )  
               b(2) = (  1.000000  1.000000  1.000000 )  
               b(3) = ( -1.000000  1.000000 -1.000000 )  


     PseudoPot. # 1 for  C read from file:
     ../C.pz-mt.fhi.UPF
     MD5 check sum: b7c38bc33a0cf75f44be89b84470f298
     Pseudo is Norm-conserving, Zval =  4.0
     Generated using FHI98PP, converted with fhi2upf.x v.5.0.2
     Using radial grid of  461 points,  2 beta functions with: 
                l(1) =   0
                l(2) =   1

     atomic species   valence    mass     pseudopotential
        C              4.00    12.01100      C( 1.00)

     48 Sym. Ops., with inversion, found (24 have fractional translation)



   Cartesian axes

     site n.     atom                  positions (alat units)
         1           C   tau(   1) = (   0.0000000   0.0000000   0.0000000  )
         2           C   tau(   2) = (  -0.2500000   0.2500000   0.2500000  )

     number of k points=     8
                       cart. coord. in units 2pi/alat
        k(    1) = (   0.0000000   0.0000000   0.0000000), wk =   0.0312500
        k(    2) = (  -0.2500000   0.2500000  -0.2500000), wk =   0.2500000
        k(    3) = (   0.5000000  -0.5000000   0.5000000), wk =   0.1250000
        k(    4) = (   0.0000000   0.5000000   0.0000000), wk =   0.1875000
        k(    5) = (   0.7500000  -0.2500000   0.7500000), wk =   0.7500000
        k(    6) = (   0.5000000   0.0000000   0.5000000), wk =   0.3750000
        k(    7) = (   0.0000000  -1.0000000   0.0000000), wk =   0.0937500
        k(    8) = (  -0.5000000  -1.0000000   0.0000000), wk =   0.1875000

     Dense  grid:     3647 G-vectors     FFT dimensions: (  24,  24,  24)

     Estimated max dynamical RAM per process >       0.13MB

     Estimated total allocated dynamical RAM >       5.01MB
     Message from routine sym_rho_init:
     some processors have no G-vectors for symmetrization
     Message from routine sym_rho_init:
     some processors have no G-vectors for symmetrization
     Message from routine sym_rho_init:
     some processors have no G-vectors for symmetrization
     Message from routine sym_rho_init:
     some processors have no G-vectors for symmetrization

     The potential is recalculated from file :
     ./c.save/charge-density.dat

     Starting wfc are   18 randomized atomic wfcs

     Band Structure Calculation
     Davidson diagonalization with overlap

     ethr =  1.25E-12,  avg # of iterations = 10.8

     total cpu time spent up to now is        1.1 secs

     End of band structure calculation

          k = 0.0000 0.0000 0.0000 (   459 PWs)   bands (ev):

    -8.1871  13.3018  13.3018  13.3018  18.9076  18.9076  18.9076  27.0876

          k =-0.2500 0.2500-0.2500 (   459 PWs)   bands (ev):

    -6.4457   6.7321  11.5398  11.5398  21.1192  21.1192  21.6482  28.0895

          k = 0.5000-0.5000 0.5000 (   464 PWs)   bands (ev):

    -2.2380  -0.1746  10.4794  10.4794  21.7772  21.7772  22.5255  28.8903

          k = 0.0000 0.5000 0.0000 (   456 PWs)   bands (ev):

    -5.8687   8.9158   9.1370   9.1370  17.7964  23.6308  24.9324  24.9324

          k = 0.7500-0.2500 0.7500 (   447 PWs)   bands (ev):

    -2.0606   2.5471   6.5606   8.3770  19.4232  24.7717  26.1618  26.7803

          k = 0.5000 0.0000 0.5000 (   443 PWs)   bands (ev):

    -3.6472   4.6861   5.6349  10.2651  21.2962  23.3542  25.7407  27.3806

          k = 0.0000-1.0000 0.0000 (   444 PWs)   bands (ev):

     0.6417   0.6417   6.9406   6.9406  18.1086  18.1086  30.1664  30.1664

          k =-0.5000-1.0000 0.0000 (   444 PWs)   bands (ev):

     1.5013   1.5013   4.8471   4.8471  23.8614  23.8614  25.8186  25.8186

     highest occupied, lowest unoccupied level (ev):    13.3018   17.7964

     Writing output data file c.save
 
     init_run     :      0.04s CPU      0.26s WALL (       1 calls)
     electrons    :      0.35s CPU      0.48s WALL (       1 calls)

     Called by init_run:
     wfcinit      :      0.00s CPU      0.00s WALL (       1 calls)
     potinit      :      0.02s CPU      0.04s WALL (       1 calls)

     Called by electrons:
     c_bands      :      0.35s CPU      0.45s WALL (       1 calls)
     v_of_rho     :      0.00s CPU      0.01s WALL (       1 calls)

     Called by c_bands:
     init_us_2    :      0.00s CPU      0.00s WALL (       8 calls)
     cegterg      :      0.31s CPU      0.32s WALL (       8 calls)

     Called by sum_band:

     Called by *egterg:
     h_psi        :      0.06s CPU      0.08s WALL (     102 calls)
     g_psi        :      0.00s CPU      0.00s WALL (      86 calls)
     cdiaghg      :      0.19s CPU      0.20s WALL (      94 calls)

     Called by h_psi:
     h_psi:pot    :      0.06s CPU      0.08s WALL (     102 calls)
     h_psi:calbec :      0.01s CPU      0.02s WALL (     102 calls)
     vloc_psi     :      0.05s CPU      0.06s WALL (     102 calls)
     add_vuspsi   :      0.00s CPU      0.00s WALL (     102 calls)

     General routines
     calbec       :      0.01s CPU      0.01s WALL (     102 calls)
     fft          :      0.00s CPU      0.03s WALL (       3 calls)
     fftw         :      0.05s CPU      0.05s WALL (    1500 calls)
 
     Parallel routines
     fft_scatter  :      0.04s CPU      0.05s WALL (    1503 calls)
 
     PWSCF        :     0.67s CPU         1.43s WALL

 
   This run was terminated on:   9:30:17  17Dec2020            

=------------------------------------------------------------------------------=
   JOB DONE.
=------------------------------------------------------------------------------=
