
     Program PWSCF v.6.1 (svn rev. 13369) starts on  7Dec2020 at 15:16: 6 

     This program is part of the open-source Quantum ESPRESSO suite
     for quantum simulation of materials; please cite
         "P. Giannozzi et al., J. Phys.:Condens. Matter 21 395502 (2009);
          URL http://www.quantum-espresso.org", 
     in publications or presentations arising from this work. More details at
     http://www.quantum-espresso.org/quote

     Parallel version (MPI & OpenMP), running on      80 processor cores
     Number of MPI processes:                80
     Threads/MPI process:                     1
     R & G space division:  proc/nbgrp/npool/nimage =      80
     Waiting for input...
     Reading input from standard input

     Current dimensions of program PWSCF are:
     Max number of different atomic species (ntypx) = 10
     Max number of k-points (npk) =  40000
     Max angular momentum in pseudopotentials (lmaxx) =  3

     IMPORTANT: XC functional enforced from input :
     Exchange-correlation      = PZ ( 1  1  0  0 0 0)
     Any further DFT definition will be discarded
     Please, verify this is what you really want

               file C.pz-mt.fhi.UPF: wavefunction(s)  3d renormalized

     Subspace diagonalization in iterative solution of the eigenvalue problem:
     one sub-group per band group will be used
     scalapack distributed-memory algorithm (size of sub-group:  6*  6 procs)

 
     Parallelization info
     --------------------
     sticks:   dense  smooth     PW     G-vecs:    dense   smooth      PW
     Min           3       3      1                   42       42       7
     Max           4       4      2                   48       48      11
     Sum         313     313    109                 3647     3647     701
 


     bravais-lattice index     =            2
     lattice parameter (alat)  =       6.7034  a.u.
     unit-cell volume          =      75.3061 (a.u.)^3
     number of atoms/cell      =            2
     number of atomic types    =            1
     number of electrons       =         8.00
     number of Kohn-Sham states=            8
     kinetic-energy cutoff     =      50.0000  Ry
     charge density cutoff     =     200.0000  Ry
     convergence threshold     =      1.0E-15
     mixing beta               =       0.7000
     number of iterations used =            8  local-TF  mixing
     Exchange-correlation      = PZ ( 1  1  0  0 0 0)
     nstep                     =           50


     celldm(1)=   6.703426  celldm(2)=   0.000000  celldm(3)=   0.000000
     celldm(4)=   0.000000  celldm(5)=   0.000000  celldm(6)=   0.000000

     crystal axes: (cart. coord. in units of alat)
               a(1) = (  -0.500000   0.000000   0.500000 )  
               a(2) = (   0.000000   0.500000   0.500000 )  
               a(3) = (  -0.500000   0.500000   0.000000 )  

     reciprocal axes: (cart. coord. in units 2 pi/alat)
               b(1) = ( -1.000000 -1.000000  1.000000 )  
               b(2) = (  1.000000  1.000000  1.000000 )  
               b(3) = ( -1.000000  1.000000 -1.000000 )  


     PseudoPot. # 1 for  C read from file:
     ../C.pz-mt.fhi.UPF
     MD5 check sum: b7c38bc33a0cf75f44be89b84470f298
     Pseudo is Norm-conserving, Zval =  4.0
     Generated using FHI98PP, converted with fhi2upf.x v.5.0.2
     Using radial grid of  461 points,  2 beta functions with: 
                l(1) =   0
                l(2) =   1

     atomic species   valence    mass     pseudopotential
        C              4.00    12.01100      C( 1.00)

     48 Sym. Ops., with inversion, found (24 have fractional translation)



   Cartesian axes

     site n.     atom                  positions (alat units)
         1           C   tau(   1) = (   0.0000000   0.0000000   0.0000000  )
         2           C   tau(   2) = (  -0.2500000   0.2500000   0.2500000  )

     number of k points=     8
                       cart. coord. in units 2pi/alat
        k(    1) = (   0.0000000   0.0000000   0.0000000), wk =   0.0312500
        k(    2) = (  -0.2500000   0.2500000  -0.2500000), wk =   0.2500000
        k(    3) = (   0.5000000  -0.5000000   0.5000000), wk =   0.1250000
        k(    4) = (   0.0000000   0.5000000   0.0000000), wk =   0.1875000
        k(    5) = (   0.7500000  -0.2500000   0.7500000), wk =   0.7500000
        k(    6) = (   0.5000000   0.0000000   0.5000000), wk =   0.3750000
        k(    7) = (   0.0000000  -1.0000000   0.0000000), wk =   0.0937500
        k(    8) = (  -0.5000000  -1.0000000   0.0000000), wk =   0.1875000

     Dense  grid:     3647 G-vectors     FFT dimensions: (  24,  24,  24)

     Estimated max dynamical RAM per process >       0.13MB

     Estimated total allocated dynamical RAM >      10.02MB
     Message from routine sym_rho_init:
     some processors have no G-vectors for symmetrization
     Message from routine sym_rho_init:
     some processors have no G-vectors for symmetrization
     Message from routine sym_rho_init:
     some processors have no G-vectors for symmetrization
     Message from routine sym_rho_init:
     some processors have no G-vectors for symmetrization
     Message from routine sym_rho_init:
     some processors have no G-vectors for symmetrization
     Message from routine sym_rho_init:
     some processors have no G-vectors for symmetrization
     Message from routine sym_rho_init:
     some processors have no G-vectors for symmetrization
     Message from routine sym_rho_init:
     some processors have no G-vectors for symmetrization
     Message from routine sym_rho_init:
     some processors have no G-vectors for symmetrization
     Message from routine sym_rho_init:
     some processors have no G-vectors for symmetrization
     Message from routine sym_rho_init:
     some processors have no G-vectors for symmetrization
     Message from routine sym_rho_init:
     some processors have no G-vectors for symmetrization
     Message from routine sym_rho_init:
     some processors have no G-vectors for symmetrization
     Message from routine sym_rho_init:
     some processors have no G-vectors for symmetrization
     Message from routine sym_rho_init:
     some processors have no G-vectors for symmetrization
     Message from routine sym_rho_init:
     some processors have no G-vectors for symmetrization
     Message from routine sym_rho_init:
     some processors have no G-vectors for symmetrization
     Message from routine sym_rho_init:
     some processors have no G-vectors for symmetrization
     Message from routine sym_rho_init:
     some processors have no G-vectors for symmetrization
     Message from routine sym_rho_init:
     some processors have no G-vectors for symmetrization
     Message from routine sym_rho_init:
     some processors have no G-vectors for symmetrization
     Message from routine sym_rho_init:
     some processors have no G-vectors for symmetrization
     Message from routine sym_rho_init:
     some processors have no G-vectors for symmetrization
     Message from routine sym_rho_init:
     some processors have no G-vectors for symmetrization
     Message from routine sym_rho_init:
     some processors have no G-vectors for symmetrization
     Message from routine sym_rho_init:
     some processors have no G-vectors for symmetrization
     Message from routine sym_rho_init:
     some processors have no G-vectors for symmetrization
     Message from routine sym_rho_init:
     some processors have no G-vectors for symmetrization
     Message from routine sym_rho_init:
     some processors have no G-vectors for symmetrization
     Message from routine sym_rho_init:
     some processors have no G-vectors for symmetrization
     Message from routine sym_rho_init:
     some processors have no G-vectors for symmetrization
     Message from routine sym_rho_init:
     some processors have no G-vectors for symmetrization
     Message from routine sym_rho_init:
     some processors have no G-vectors for symmetrization
     Message from routine sym_rho_init:
     some processors have no G-vectors for symmetrization
     Message from routine sym_rho_init:
     some processors have no G-vectors for symmetrization
     Message from routine sym_rho_init:
     some processors have no G-vectors for symmetrization
     Message from routine sym_rho_init:
     some processors have no G-vectors for symmetrization
     Message from routine sym_rho_init:
     some processors have no G-vectors for symmetrization
     Message from routine sym_rho_init:
     some processors have no G-vectors for symmetrization
     Message from routine sym_rho_init:
     some processors have no G-vectors for symmetrization
     Message from routine sym_rho_init:
     some processors have no G-vectors for symmetrization
     Message from routine sym_rho_init:
     some processors have no G-vectors for symmetrization
     Message from routine sym_rho_init:
     some processors have no G-vectors for symmetrization
     Message from routine sym_rho_init:
     some processors have no G-vectors for symmetrization
     Message from routine sym_rho_init:
     some processors have no G-vectors for symmetrization
     Message from routine sym_rho_init:
     some processors have no G-vectors for symmetrization
     Message from routine sym_rho_init:
     some processors have no G-vectors for symmetrization
     Message from routine sym_rho_init:
     some processors have no G-vectors for symmetrization
     Message from routine sym_rho_init:
     some processors have no G-vectors for symmetrization
     Message from routine sym_rho_init:
     some processors have no G-vectors for symmetrization
     Message from routine sym_rho_init:
     some processors have no G-vectors for symmetrization
     Message from routine sym_rho_init:
     some processors have no G-vectors for symmetrization
     Message from routine sym_rho_init:
     some processors have no G-vectors for symmetrization
     Message from routine sym_rho_init:
     some processors have no G-vectors for symmetrization
     Message from routine sym_rho_init:
     some processors have no G-vectors for symmetrization
     Message from routine sym_rho_init:
     some processors have no G-vectors for symmetrization

     Initial potential from superposition of free atoms

     starting charge    7.99993, renormalised to    8.00000
     Starting wfc are   18 randomized atomic wfcs

     total cpu time spent up to now is        0.3 secs

     per-process dynamical memory:    19.8 Mb

     Self-consistent Calculation

     iteration #  1     ecut=    50.00 Ry     beta=0.70
     Davidson diagonalization with overlap
     ethr =  1.00E-02,  avg # of iterations =  2.8

     total cpu time spent up to now is        0.5 secs

     total energy              =     -22.88317288 Ry
     Harris-Foulkes estimate   =     -22.93383402 Ry
     estimated scf accuracy    <       0.13207826 Ry

     iteration #  2     ecut=    50.00 Ry     beta=0.70
     Davidson diagonalization with overlap
     ethr =  1.65E-03,  avg # of iterations =  1.4

     total cpu time spent up to now is        0.6 secs

     total energy              =     -22.87254561 Ry
     Harris-Foulkes estimate   =     -22.88755747 Ry
     estimated scf accuracy    <       0.02774136 Ry

     iteration #  3     ecut=    50.00 Ry     beta=0.70
     Davidson diagonalization with overlap
     ethr =  3.47E-04,  avg # of iterations =  2.0

     total cpu time spent up to now is        0.8 secs

     total energy              =     -22.87584667 Ry
     Harris-Foulkes estimate   =     -22.87580479 Ry
     estimated scf accuracy    <       0.00013107 Ry

     iteration #  4     ecut=    50.00 Ry     beta=0.70
     Davidson diagonalization with overlap
     ethr =  1.64E-06,  avg # of iterations =  2.1

     total cpu time spent up to now is        0.9 secs

     total energy              =     -22.87587488 Ry
     Harris-Foulkes estimate   =     -22.87588297 Ry
     estimated scf accuracy    <       0.00001184 Ry

     iteration #  5     ecut=    50.00 Ry     beta=0.70
     Davidson diagonalization with overlap
     ethr =  1.48E-07,  avg # of iterations =  2.0

     total cpu time spent up to now is        1.1 secs

     total energy              =     -22.87587585 Ry
     Harris-Foulkes estimate   =     -22.87587604 Ry
     estimated scf accuracy    <       0.00000038 Ry

     iteration #  6     ecut=    50.00 Ry     beta=0.70
     Davidson diagonalization with overlap
     ethr =  4.71E-09,  avg # of iterations =  2.4

     total cpu time spent up to now is        1.2 secs

     total energy              =     -22.87587590 Ry
     Harris-Foulkes estimate   =     -22.87587590 Ry
     estimated scf accuracy    <          7.4E-10 Ry

     iteration #  7     ecut=    50.00 Ry     beta=0.70
     Davidson diagonalization with overlap
     ethr =  9.29E-12,  avg # of iterations =  2.8

     total cpu time spent up to now is        1.4 secs

     total energy              =     -22.87587590 Ry
     Harris-Foulkes estimate   =     -22.87587590 Ry
     estimated scf accuracy    <          2.0E-10 Ry

     iteration #  8     ecut=    50.00 Ry     beta=0.70
     Davidson diagonalization with overlap
     ethr =  2.47E-12,  avg # of iterations =  2.0

     total cpu time spent up to now is        1.5 secs

     total energy              =     -22.87587590 Ry
     Harris-Foulkes estimate   =     -22.87587590 Ry
     estimated scf accuracy    <          2.6E-12 Ry

     iteration #  9     ecut=    50.00 Ry     beta=0.70
     Davidson diagonalization with overlap
     ethr =  1.00E-13,  avg # of iterations =  1.9

     total cpu time spent up to now is        1.7 secs

     total energy              =     -22.87587590 Ry
     Harris-Foulkes estimate   =     -22.87587590 Ry
     estimated scf accuracy    <          1.3E-13 Ry

     iteration # 10     ecut=    50.00 Ry     beta=0.70
     Davidson diagonalization with overlap
     ethr =  1.00E-13,  avg # of iterations =  1.0

     total cpu time spent up to now is        1.8 secs

     total energy              =     -22.87587590 Ry
     Harris-Foulkes estimate   =     -22.87587590 Ry
     estimated scf accuracy    <          3.3E-14 Ry

     iteration # 11     ecut=    50.00 Ry     beta=0.70
     Davidson diagonalization with overlap
     ethr =  1.00E-13,  avg # of iterations =  1.0

     total cpu time spent up to now is        1.9 secs

     End of self-consistent calculation

          k = 0.0000 0.0000 0.0000 (   459 PWs)   bands (ev):

    -8.1710  13.3321  13.3321  13.3321  18.9289  18.9289  18.9289  27.1164

          k =-0.2500 0.2500-0.2500 (   459 PWs)   bands (ev):

    -6.4288   6.7547  11.5679  11.5679  21.1418  21.1418  21.6718  28.1142

          k = 0.5000-0.5000 0.5000 (   464 PWs)   bands (ev):

    -2.2165  -0.1590  10.5069  10.5069  21.7963  21.7963  22.5491  28.9048

          k = 0.0000 0.5000 0.0000 (   456 PWs)   bands (ev):

    -5.8515   8.9435   9.1616   9.1616  17.8129  23.6408  24.9602  24.9602

          k = 0.7500-0.2500 0.7500 (   447 PWs)   bands (ev):

    -2.0408   2.5675   6.5830   8.4014  19.4364  24.7883  26.1877  26.8077

          k = 0.5000 0.0000 0.5000 (   443 PWs)   bands (ev):

    -3.6286   4.7092   5.6547  10.2919  21.3125  23.3784  25.7662  27.4049

          k = 0.0000-1.0000 0.0000 (   444 PWs)   bands (ev):

     0.6628   0.6628   6.9638   6.9638  18.1189  18.1189  30.1988  30.1988

          k =-0.5000-1.0000 0.0000 (   444 PWs)   bands (ev):

     1.5249   1.5249   4.8647   4.8647  23.8763  23.8763  25.8448  25.8448

     highest occupied, lowest unoccupied level (ev):    13.3321   17.8129

!    total energy              =     -22.87587590 Ry
     Harris-Foulkes estimate   =     -22.87587590 Ry
     estimated scf accuracy    <          2.0E-16 Ry

     The total energy is the sum of the following terms:

     one-electron contribution =       8.01959898 Ry
     hartree contribution      =       1.92090937 Ry
     xc contribution           =      -7.10154081 Ry
     ewald contribution        =     -25.71484344 Ry

     convergence has been achieved in  11 iterations

     Forces acting on atoms (cartesian axes, Ry/au):

     atom    1 type  1   force =    -0.00000000    0.00000000   -0.00000000
     atom    2 type  1   force =     0.00000000   -0.00000000    0.00000000

     Total force =     0.000000     Total SCF correction =     0.000000


     Computing stress (Cartesian axis) and pressure

          total   stress  (Ry/bohr**3)                   (kbar)     P= -135.42
  -0.00092055  -0.00000000  -0.00000000       -135.42     -0.00     -0.00
  -0.00000000  -0.00092055   0.00000000         -0.00   -135.42      0.00
  -0.00000000   0.00000000  -0.00092055         -0.00      0.00   -135.42


     BFGS Geometry Optimization

     number of scf cycles    =   1
     number of bfgs steps    =   0

     enthalpy new            =     -22.8758759020 Ry

     new trust radius        =       0.0399424506 bohr
     new conv_thr            =            1.0E-15 Ry

     new unit-cell volume =     70.22562 a.u.^3 (    10.40636 Ang^3 )
     density =      3.83318 g/cm^3

CELL_PARAMETERS (alat=  6.70342551)
  -0.488493068   0.000000000   0.488493068
  -0.000000000   0.488493068   0.488493068
  -0.488493068   0.488493068   0.000000000

ATOMIC_POSITIONS (crystal)
C       -0.000000000  -0.000000000   0.000000000
C        0.250000000   0.250000000   0.250000000



     Writing output data file c.save
     NEW-OLD atomic charge density approx. for the potential
     extrapolated charge    7.42124, renormalised to    8.00000

     total cpu time spent up to now is        2.1 secs

     per-process dynamical memory:    20.2 Mb

     Self-consistent Calculation

     iteration #  1     ecut=    50.00 Ry     beta=0.70
     Davidson diagonalization with overlap
     ethr =  1.00E-06,  avg # of iterations =  3.9

     total cpu time spent up to now is        2.4 secs

     total energy              =     -22.87012445 Ry
     Harris-Foulkes estimate   =     -22.46154791 Ry
     estimated scf accuracy    <       0.00247051 Ry

     iteration #  2     ecut=    50.00 Ry     beta=0.70
     Davidson diagonalization with overlap
     ethr =  3.09E-05,  avg # of iterations =  2.9

     total cpu time spent up to now is        2.6 secs

     total energy              =     -22.87480516 Ry
     Harris-Foulkes estimate   =     -22.87495713 Ry
     estimated scf accuracy    <       0.00050785 Ry

     iteration #  3     ecut=    50.00 Ry     beta=0.70
     Davidson diagonalization with overlap
     ethr =  6.35E-06,  avg # of iterations =  1.0

     total cpu time spent up to now is        2.7 secs

     total energy              =     -22.87471951 Ry
     Harris-Foulkes estimate   =     -22.87481452 Ry
     estimated scf accuracy    <       0.00018440 Ry

     iteration #  4     ecut=    50.00 Ry     beta=0.70
     Davidson diagonalization with overlap
     ethr =  2.30E-06,  avg # of iterations =  2.0

     total cpu time spent up to now is        2.9 secs

     total energy              =     -22.87473634 Ry
     Harris-Foulkes estimate   =     -22.87473708 Ry
     estimated scf accuracy    <       0.00000145 Ry

     iteration #  5     ecut=    50.00 Ry     beta=0.70
     Davidson diagonalization with overlap
     ethr =  1.82E-08,  avg # of iterations =  2.6

     total cpu time spent up to now is        3.1 secs

     total energy              =     -22.87473679 Ry
     Harris-Foulkes estimate   =     -22.87473690 Ry
     estimated scf accuracy    <       0.00000021 Ry

     iteration #  6     ecut=    50.00 Ry     beta=0.70
     Davidson diagonalization with overlap
     ethr =  2.62E-09,  avg # of iterations =  2.1

     total cpu time spent up to now is        3.2 secs

     total energy              =     -22.87473681 Ry
     Harris-Foulkes estimate   =     -22.87473681 Ry
     estimated scf accuracy    <          4.6E-09 Ry

     iteration #  7     ecut=    50.00 Ry     beta=0.70
     Davidson diagonalization with overlap
     ethr =  5.77E-11,  avg # of iterations =  2.2

     total cpu time spent up to now is        3.4 secs

     total energy              =     -22.87473681 Ry
     Harris-Foulkes estimate   =     -22.87473681 Ry
     estimated scf accuracy    <          4.0E-11 Ry

     iteration #  8     ecut=    50.00 Ry     beta=0.70
     Davidson diagonalization with overlap
     ethr =  5.03E-13,  avg # of iterations =  2.1

     total cpu time spent up to now is        3.6 secs

     total energy              =     -22.87473681 Ry
     Harris-Foulkes estimate   =     -22.87473681 Ry
     estimated scf accuracy    <          2.8E-12 Ry

     iteration #  9     ecut=    50.00 Ry     beta=0.70
     Davidson diagonalization with overlap
     ethr =  1.00E-13,  avg # of iterations =  1.8

     total cpu time spent up to now is        3.8 secs

     total energy              =     -22.87473681 Ry
     Harris-Foulkes estimate   =     -22.87473681 Ry
     estimated scf accuracy    <          1.7E-14 Ry

     iteration # 10     ecut=    50.00 Ry     beta=0.70
     Davidson diagonalization with overlap
     ethr =  1.00E-13,  avg # of iterations =  1.0

     total cpu time spent up to now is        3.9 secs

     total energy              =     -22.87473681 Ry
     Harris-Foulkes estimate   =     -22.87473681 Ry
     estimated scf accuracy    <          8.5E-15 Ry

     iteration # 11     ecut=    50.00 Ry     beta=0.70
     Davidson diagonalization with overlap
     ethr =  1.00E-13,  avg # of iterations =  1.0

     total cpu time spent up to now is        4.0 secs

     End of self-consistent calculation

          k = 0.0000 0.0000 0.0000 (   459 PWs)   bands (ev):

    -7.8346  14.6212  14.6212  14.6212  20.4195  20.4195  20.4195  30.0201

          k =-0.2559 0.2559-0.2559 (   459 PWs)   bands (ev):

    -6.0078   7.7090  12.7358  12.7358  22.7699  22.7699  23.6210  30.5383

          k = 0.5118-0.5118 0.5118 (   464 PWs)   bands (ev):

    -1.4592   0.3351  11.6135  11.6135  23.3909  23.3909  24.8259  30.8279

          k = 0.0000 0.5118 0.0000 (   456 PWs)   bands (ev):

    -5.4033  10.1491  10.1549  10.1549  19.3033  25.3730  26.9013  26.9013

          k = 0.7677-0.2559 0.7677 (   447 PWs)   bands (ev):

    -1.3756   3.3401   7.5114   9.3537  20.9541  26.5889  28.1627  29.1073

          k = 0.5118 0.0000 0.5118 (   443 PWs)   bands (ev):

    -3.0603   5.6417   6.4655  11.3752  22.9511  25.1652  27.8174  29.7757

          k = 0.0000-1.0236 0.0000 (   444 PWs)   bands (ev):

     1.4483   1.4483   7.8223   7.8223  19.5810  19.5810  32.5783  32.5783

          k =-0.5118-1.0236 0.0000 (   444 PWs)   bands (ev):

     2.4367   2.4367   5.5376   5.5376  25.4932  25.4932  28.0721  28.0721

     highest occupied, lowest unoccupied level (ev):    14.6212   19.3033

!    total energy              =     -22.87473681 Ry
     Harris-Foulkes estimate   =     -22.87473681 Ry
     estimated scf accuracy    <          4.9E-17 Ry

     The total energy is the sum of the following terms:

     one-electron contribution =       8.81147053 Ry
     hartree contribution      =       1.85429309 Ry
     xc contribution           =      -7.21991873 Ry
     ewald contribution        =     -26.32058170 Ry

     convergence has been achieved in  11 iterations

     Forces acting on atoms (cartesian axes, Ry/au):

     atom    1 type  1   force =     0.00000000    0.00000000    0.00000000
     atom    2 type  1   force =     0.00000000   -0.00000000    0.00000000

     Total force =     0.000000     Total SCF correction =     0.000000


     Computing stress (Cartesian axis) and pressure

          total   stress  (Ry/bohr**3)                   (kbar)     P=  218.51
   0.00148540   0.00000000   0.00000000        218.51      0.00      0.00
   0.00000000   0.00148540  -0.00000000          0.00    218.51     -0.00
   0.00000000  -0.00000000   0.00148540          0.00     -0.00    218.51


     number of scf cycles    =   2
     number of bfgs steps    =   1

     enthalpy old            =     -22.8758759020 Ry
     enthalpy new            =     -22.8747368083 Ry

     CASE: enthalpy_new > enthalpy_old

     new trust radius        =       0.0159451951 bohr
     new conv_thr            =            1.0E-15 Ry

     new unit-cell volume =     73.22573 a.u.^3 (    10.85093 Ang^3 )
     density =      3.67613 g/cm^3

CELL_PARAMETERS (alat=  6.70342551)
  -0.495352596   0.000000000   0.495352596
  -0.000000000   0.495352596   0.495352596
  -0.495352596   0.495352596   0.000000000

ATOMIC_POSITIONS (crystal)
C       -0.000000000  -0.000000000   0.000000000
C        0.250000000   0.250000000   0.250000000



     Writing output data file c.save
     NEW-OLD atomic charge density approx. for the potential
     extrapolated charge    8.32776, renormalised to    8.00000

     total cpu time spent up to now is        4.1 secs

     per-process dynamical memory:    20.4 Mb

     Self-consistent Calculation

     iteration #  1     ecut=    50.00 Ry     beta=0.70
     Davidson diagonalization with overlap
     ethr =  1.00E-06,  avg # of iterations =  3.6

     total cpu time spent up to now is        4.3 secs

     total energy              =     -22.87535844 Ry
     Harris-Foulkes estimate   =     -23.10513636 Ry
     estimated scf accuracy    <       0.00062160 Ry

     iteration #  2     ecut=    50.00 Ry     beta=0.70
     Davidson diagonalization with overlap
     ethr =  7.77E-06,  avg # of iterations =  3.2

     total cpu time spent up to now is        4.6 secs

     total energy              =     -22.87690869 Ry
     Harris-Foulkes estimate   =     -22.87697495 Ry
     estimated scf accuracy    <       0.00022663 Ry

     iteration #  3     ecut=    50.00 Ry     beta=0.70
     Davidson diagonalization with overlap
     ethr =  2.83E-06,  avg # of iterations =  1.0

     total cpu time spent up to now is        4.7 secs

     total energy              =     -22.87686103 Ry
     Harris-Foulkes estimate   =     -22.87691206 Ry
     estimated scf accuracy    <       0.00009406 Ry

     iteration #  4     ecut=    50.00 Ry     beta=0.70
     Davidson diagonalization with overlap
     ethr =  1.18E-06,  avg # of iterations =  2.0

     total cpu time spent up to now is        4.9 secs

     total energy              =     -22.87686879 Ry
     Harris-Foulkes estimate   =     -22.87686958 Ry
     estimated scf accuracy    <       0.00000139 Ry

     iteration #  5     ecut=    50.00 Ry     beta=0.70
     Davidson diagonalization with overlap
     ethr =  1.73E-08,  avg # of iterations =  2.6

     total cpu time spent up to now is        5.1 secs

     total energy              =     -22.87686914 Ry
     Harris-Foulkes estimate   =     -22.87686920 Ry
     estimated scf accuracy    <       0.00000013 Ry

     iteration #  6     ecut=    50.00 Ry     beta=0.70
     Davidson diagonalization with overlap
     ethr =  1.61E-09,  avg # of iterations =  2.1

     total cpu time spent up to now is        5.3 secs

     total energy              =     -22.87686914 Ry
     Harris-Foulkes estimate   =     -22.87686915 Ry
     estimated scf accuracy    <          4.6E-09 Ry

     iteration #  7     ecut=    50.00 Ry     beta=0.70
     Davidson diagonalization with overlap
     ethr =  5.75E-11,  avg # of iterations =  2.4

     total cpu time spent up to now is        5.5 secs

     total energy              =     -22.87686914 Ry
     Harris-Foulkes estimate   =     -22.87686914 Ry
     estimated scf accuracy    <          1.3E-11 Ry

     iteration #  8     ecut=    50.00 Ry     beta=0.70
     Davidson diagonalization with overlap
     ethr =  1.68E-13,  avg # of iterations =  1.9

     total cpu time spent up to now is        5.7 secs

     total energy              =     -22.87686914 Ry
     Harris-Foulkes estimate   =     -22.87686914 Ry
     estimated scf accuracy    <          3.9E-12 Ry

     iteration #  9     ecut=    50.00 Ry     beta=0.70
     Davidson diagonalization with overlap
     ethr =  1.00E-13,  avg # of iterations =  1.8

     total cpu time spent up to now is        5.9 secs

     total energy              =     -22.87686914 Ry
     Harris-Foulkes estimate   =     -22.87686914 Ry
     estimated scf accuracy    <          3.7E-14 Ry

     iteration # 10     ecut=    50.00 Ry     beta=0.70
     Davidson diagonalization with overlap
     ethr =  1.00E-13,  avg # of iterations =  1.0

     total cpu time spent up to now is        6.0 secs

     total energy              =     -22.87686914 Ry
     Harris-Foulkes estimate   =     -22.87686914 Ry
     estimated scf accuracy    <          4.3E-15 Ry

     iteration # 11     ecut=    50.00 Ry     beta=0.70
     Davidson diagonalization with overlap
     ethr =  1.00E-13,  avg # of iterations =  1.0

     total cpu time spent up to now is        6.2 secs

     End of self-consistent calculation

          k = 0.0000 0.0000 0.0000 (   459 PWs)   bands (ev):

    -8.0390  13.8406  13.8406  13.8406  19.5180  19.5180  19.5180  28.2650

          k =-0.2523 0.2523-0.2523 (   459 PWs)   bands (ev):

    -6.2630   7.1315  12.0286  12.0286  21.7853  21.7853  22.4436  29.0776

          k = 0.5047-0.5047 0.5047 (   464 PWs)   bands (ev):

    -1.9186   0.0366  10.9434  10.9434  22.4275  22.4275  23.4488  29.6694

          k = 0.0000 0.5047 0.0000 (   456 PWs)   bands (ev):

    -5.6750   9.4198   9.5536   9.5536  18.4011  24.3337  25.7269  25.7269

          k = 0.7570-0.2523 0.7570 (   447 PWs)   bands (ev):

    -1.7777   2.8729   6.9484   8.7772  20.0375  25.5054  26.9685  27.7105

          k = 0.5047 0.0000 0.5047 (   443 PWs)   bands (ev):

    -3.4041   5.0779   5.9737  10.7193  21.9635  24.0845  26.5769  28.3398

          k = 0.0000-1.0094 0.0000 (   444 PWs)   bands (ev):

     0.9733   0.9733   7.3025   7.3025  18.6969  18.6969  31.1378  31.1378

          k =-0.5047-1.0094 0.0000 (   444 PWs)   bands (ev):

     1.8844   1.8844   5.1305   5.1305  24.5162  24.5162  26.7244  26.7244

     highest occupied, lowest unoccupied level (ev):    13.8406   18.4011

!    total energy              =     -22.87686914 Ry
     Harris-Foulkes estimate   =     -22.87686914 Ry
     estimated scf accuracy    <          2.6E-17 Ry

     The total energy is the sum of the following terms:

     one-electron contribution =       8.33384749 Ry
     hartree contribution      =       1.89391470 Ry
     xc contribution           =      -7.14853090 Ry
     ewald contribution        =     -25.95610043 Ry

     convergence has been achieved in  11 iterations

     Forces acting on atoms (cartesian axes, Ry/au):

     atom    1 type  1   force =    -0.00000000    0.00000000   -0.00000000
     atom    2 type  1   force =    -0.00000000   -0.00000000   -0.00000000

     Total force =     0.000000     Total SCF correction =     0.000000


     Computing stress (Cartesian axis) and pressure

          total   stress  (Ry/bohr**3)                   (kbar)     P=   -3.19
  -0.00002170   0.00000000   0.00000000         -3.19      0.00      0.00
   0.00000000  -0.00002170  -0.00000000          0.00     -3.19     -0.00
   0.00000000  -0.00000000  -0.00002170          0.00     -0.00     -3.19


     number of scf cycles    =   3
     number of bfgs steps    =   1

     enthalpy old            =     -22.8758759020 Ry
     enthalpy new            =     -22.8768691435 Ry

     CASE: enthalpy_new < enthalpy_old

     new trust radius        =       0.0003803060 bohr
     new conv_thr            =            1.0E-17 Ry

     new unit-cell volume =     73.17692 a.u.^3 (    10.84370 Ang^3 )
     density =      3.67858 g/cm^3

CELL_PARAMETERS (alat=  6.70342551)
  -0.495242521   0.000000000   0.495242521
  -0.000000000   0.495242521   0.495242521
  -0.495242521   0.495242521   0.000000000

ATOMIC_POSITIONS (crystal)
C       -0.000000000  -0.000000000   0.000000000
C        0.250000000   0.250000000   0.250000000



     Writing output data file c.save
     NEW-OLD atomic charge density approx. for the potential
     extrapolated charge    7.99466, renormalised to    8.00000

     total cpu time spent up to now is        6.2 secs

     per-process dynamical memory:    20.7 Mb

     Self-consistent Calculation

     iteration #  1     ecut=    50.00 Ry     beta=0.70
     Davidson diagonalization with overlap
     ethr =  1.00E-06,  avg # of iterations =  1.0

     Threshold (ethr) on eigenvalues was too large:
     Diagonalizing with lowered threshold

     Davidson diagonalization with overlap
     ethr =  2.49E-09,  avg # of iterations =  1.8

     total cpu time spent up to now is        6.5 secs

     total energy              =     -22.87686925 Ry
     Harris-Foulkes estimate   =     -22.87316021 Ry
     estimated scf accuracy    <       0.00000019 Ry

     iteration #  2     ecut=    50.00 Ry     beta=0.70
     Davidson diagonalization with overlap
     ethr =  2.34E-09,  avg # of iterations =  3.1

     total cpu time spent up to now is        6.8 secs

     total energy              =     -22.87686966 Ry
     Harris-Foulkes estimate   =     -22.87686968 Ry
     estimated scf accuracy    <       0.00000005 Ry

     iteration #  3     ecut=    50.00 Ry     beta=0.70
     Davidson diagonalization with overlap
     ethr =  6.68E-10,  avg # of iterations =  1.0

     total cpu time spent up to now is        6.9 secs

     total energy              =     -22.87686965 Ry
     Harris-Foulkes estimate   =     -22.87686966 Ry
     estimated scf accuracy    <       0.00000002 Ry

     iteration #  4     ecut=    50.00 Ry     beta=0.70
     Davidson diagonalization with overlap
     ethr =  2.62E-10,  avg # of iterations =  2.0

     total cpu time spent up to now is        7.1 secs

     total energy              =     -22.87686966 Ry
     Harris-Foulkes estimate   =     -22.87686966 Ry
     estimated scf accuracy    <          2.5E-10 Ry

     iteration #  5     ecut=    50.00 Ry     beta=0.70
     Davidson diagonalization with overlap
     ethr =  3.15E-12,  avg # of iterations =  2.6

     total cpu time spent up to now is        7.4 secs

     total energy              =     -22.87686966 Ry
     Harris-Foulkes estimate   =     -22.87686966 Ry
     estimated scf accuracy    <          3.5E-11 Ry

     iteration #  6     ecut=    50.00 Ry     beta=0.70
     Davidson diagonalization with overlap
     ethr =  4.35E-13,  avg # of iterations =  2.1

     total cpu time spent up to now is        7.6 secs

     total energy              =     -22.87686966 Ry
     Harris-Foulkes estimate   =     -22.87686966 Ry
     estimated scf accuracy    <          7.1E-13 Ry

     iteration #  7     ecut=    50.00 Ry     beta=0.70
     Davidson diagonalization with overlap
     ethr =  1.00E-13,  avg # of iterations =  1.0

     total cpu time spent up to now is        7.8 secs

     total energy              =     -22.87686966 Ry
     Harris-Foulkes estimate   =     -22.87686966 Ry
     estimated scf accuracy    <          3.5E-15 Ry

     iteration #  8     ecut=    50.00 Ry     beta=0.70
     Davidson diagonalization with overlap
     ethr =  1.00E-13,  avg # of iterations =  1.0

     total cpu time spent up to now is        7.9 secs

     total energy              =     -22.87686966 Ry
     Harris-Foulkes estimate   =     -22.87686966 Ry
     estimated scf accuracy    <          4.1E-16 Ry

     iteration #  9     ecut=    50.00 Ry     beta=0.70
     Davidson diagonalization with overlap
     ethr =  1.00E-13,  avg # of iterations =  1.0

     total cpu time spent up to now is        8.1 secs

     End of self-consistent calculation

          k = 0.0000 0.0000 0.0000 (   459 PWs)   bands (ev):

    -8.0358  13.8529  13.8529  13.8529  19.5321  19.5321  19.5321  28.2926

          k =-0.2524 0.2524-0.2524 (   459 PWs)   bands (ev):

    -6.2590   7.1406  12.0397  12.0397  21.8008  21.8008  22.4622  29.1007

          k = 0.5048-0.5048 0.5048 (   464 PWs)   bands (ev):

    -1.9115   0.0413  10.9539  10.9539  22.4427  22.4427  23.4704  29.6877

          k = 0.0000 0.5048 0.0000 (   456 PWs)   bands (ev):

    -5.6707   9.4312   9.5630   9.5630  18.4152  24.3502  25.7453  25.7453

          k = 0.7572-0.2524 0.7572 (   447 PWs)   bands (ev):

    -1.7714   2.8803   6.9572   8.7862  20.0520  25.5225  26.9873  27.7323

          k = 0.5048 0.0000 0.5048 (   443 PWs)   bands (ev):

    -3.3987   5.0868   5.9814  10.7296  21.9790  24.1015  26.5964  28.3623

          k = 0.0000-1.0096 0.0000 (   444 PWs)   bands (ev):

     0.9807   0.9807   7.3106   7.3106  18.7108  18.7108  31.1604  31.1604

          k =-0.5048-1.0096 0.0000 (   444 PWs)   bands (ev):

     1.8930   1.8930   5.1369   5.1369  24.5316  24.5316  26.7456  26.7456

     highest occupied, lowest unoccupied level (ev):    13.8529   18.4152

!    total energy              =     -22.87686966 Ry
     Harris-Foulkes estimate   =     -22.87686966 Ry
     estimated scf accuracy    <          4.8E-18 Ry

     The total energy is the sum of the following terms:

     one-electron contribution =       8.34138031 Ry
     hartree contribution      =       1.89327684 Ry
     xc contribution           =      -7.14965729 Ry
     ewald contribution        =     -25.96186952 Ry

     convergence has been achieved in   9 iterations

     Forces acting on atoms (cartesian axes, Ry/au):

     atom    1 type  1   force =    -0.00000000    0.00000000   -0.00000000
     atom    2 type  1   force =     0.00000000    0.00000000    0.00000000

     Total force =     0.000000     Total SCF correction =     0.000000


     Computing stress (Cartesian axis) and pressure

          total   stress  (Ry/bohr**3)                   (kbar)     P=    0.11
   0.00000073   0.00000000   0.00000000          0.11      0.00      0.00
   0.00000000   0.00000073  -0.00000000          0.00      0.11     -0.00
   0.00000000  -0.00000000   0.00000073          0.00     -0.00      0.11


     bfgs converged in   4 scf cycles and   2 bfgs steps
     (criteria: energy <  1.0E-04 Ry, force <  1.0E-03Ry/Bohr, cell <  5.0E-01kbar)

     End of BFGS Geometry Optimization

     Final enthalpy =     -22.8768696554 Ry
Begin final coordinates
     new unit-cell volume =     73.17692 a.u.^3 (    10.84370 Ang^3 )
     density =      3.67858 g/cm^3

CELL_PARAMETERS (alat=  6.70342551)
  -0.495242521   0.000000000   0.495242521
  -0.000000000   0.495242521   0.495242521
  -0.495242521   0.495242521   0.000000000

ATOMIC_POSITIONS (crystal)
C       -0.000000000  -0.000000000   0.000000000
C        0.250000000   0.250000000   0.250000000
End final coordinates



     A final scf calculation at the relaxed structure.
     The G-vectors are recalculated for the final unit cell
     Results may differ from those at the preceding step.
 
     Parallelization info
     --------------------
     sticks:   dense  smooth     PW     G-vecs:    dense   smooth      PW
     Min           3       3      1                   40       40       6
     Max           4       4      2                   47       47      10
     Sum         301     301     97                 3479     3479     645
 


     bravais-lattice index     =            2
     lattice parameter (alat)  =       6.7034  a.u.
     unit-cell volume          =      73.1769 (a.u.)^3
     number of atoms/cell      =            2
     number of atomic types    =            1
     number of electrons       =         8.00
     number of Kohn-Sham states=            8
     kinetic-energy cutoff     =      50.0000  Ry
     charge density cutoff     =     200.0000  Ry
     convergence threshold     =      1.0E-17
     mixing beta               =       0.7000
     number of iterations used =            8  local-TF  mixing
     Exchange-correlation      = PZ ( 1  1  0  0 0 0)

     celldm(1)=   6.703426  celldm(2)=   0.000000  celldm(3)=   0.000000
     celldm(4)=   0.000000  celldm(5)=   0.000000  celldm(6)=   0.000000

     crystal axes: (cart. coord. in units of alat)
               a(1) = (  -0.495243   0.000000   0.495243 )  
               a(2) = (  -0.000000   0.495243   0.495243 )  
               a(3) = (  -0.495243   0.495243   0.000000 )  

     reciprocal axes: (cart. coord. in units 2 pi/alat)
               b(1) = ( -1.009606 -1.009606  1.009606 )  
               b(2) = (  1.009606  1.009606  1.009606 )  
               b(3) = ( -1.009606  1.009606 -1.009606 )  


     PseudoPot. # 1 for  C read from file:
     ../C.pz-mt.fhi.UPF
     MD5 check sum: b7c38bc33a0cf75f44be89b84470f298
     Pseudo is Norm-conserving, Zval =  4.0
     Generated using FHI98PP, converted with fhi2upf.x v.5.0.2
     Using radial grid of  461 points,  2 beta functions with: 
                l(1) =   0
                l(2) =   1

     atomic species   valence    mass     pseudopotential
        C              4.00    12.01100      C( 1.00)

     48 Sym. Ops., with inversion, found (24 have fractional translation)



   Cartesian axes

     site n.     atom                  positions (alat units)
         1           C   tau(   1) = (  -0.0000000   0.0000000  -0.0000000  )
         2           C   tau(   2) = (  -0.2476213   0.2476213   0.2476213  )

     number of k points=     8
                       cart. coord. in units 2pi/alat
        k(    1) = (   0.0000000   0.0000000   0.0000000), wk =   0.0312500
        k(    2) = (  -0.2524016   0.2524016  -0.2524016), wk =   0.2500000
        k(    3) = (   0.5048032  -0.5048032   0.5048032), wk =   0.1250000
        k(    4) = (   0.0000000   0.5048032   0.0000000), wk =   0.1875000
        k(    5) = (   0.7572048  -0.2524016   0.7572048), wk =   0.7500000
        k(    6) = (   0.5048032   0.0000000   0.5048032), wk =   0.3750000
        k(    7) = (   0.0000000  -1.0096064   0.0000000), wk =   0.0937500
        k(    8) = (  -0.5048032  -1.0096064   0.0000000), wk =   0.1875000

     Dense  grid:     3479 G-vectors     FFT dimensions: (  24,  24,  24)

     Estimated max dynamical RAM per process >       0.12MB

     Estimated total allocated dynamical RAM >       9.56MB
     Message from routine sym_rho_init:
     some processors have no G-vectors for symmetrization
     Message from routine sym_rho_init:
     some processors have no G-vectors for symmetrization
     Message from routine sym_rho_init:
     some processors have no G-vectors for symmetrization
     Message from routine sym_rho_init:
     some processors have no G-vectors for symmetrization
     Message from routine sym_rho_init:
     some processors have no G-vectors for symmetrization
     Message from routine sym_rho_init:
     some processors have no G-vectors for symmetrization
     Message from routine sym_rho_init:
     some processors have no G-vectors for symmetrization
     Message from routine sym_rho_init:
     some processors have no G-vectors for symmetrization
     Message from routine sym_rho_init:
     some processors have no G-vectors for symmetrization
     Message from routine sym_rho_init:
     some processors have no G-vectors for symmetrization
     Message from routine sym_rho_init:
     some processors have no G-vectors for symmetrization
     Message from routine sym_rho_init:
     some processors have no G-vectors for symmetrization
     Message from routine sym_rho_init:
     some processors have no G-vectors for symmetrization
     Message from routine sym_rho_init:
     some processors have no G-vectors for symmetrization
     Message from routine sym_rho_init:
     some processors have no G-vectors for symmetrization
     Message from routine sym_rho_init:
     some processors have no G-vectors for symmetrization
     Message from routine sym_rho_init:
     some processors have no G-vectors for symmetrization
     Message from routine sym_rho_init:
     some processors have no G-vectors for symmetrization
     Message from routine sym_rho_init:
     some processors have no G-vectors for symmetrization
     Message from routine sym_rho_init:
     some processors have no G-vectors for symmetrization
     Message from routine sym_rho_init:
     some processors have no G-vectors for symmetrization
     Message from routine sym_rho_init:
     some processors have no G-vectors for symmetrization
     Message from routine sym_rho_init:
     some processors have no G-vectors for symmetrization
     Message from routine sym_rho_init:
     some processors have no G-vectors for symmetrization
     Message from routine sym_rho_init:
     some processors have no G-vectors for symmetrization
     Message from routine sym_rho_init:
     some processors have no G-vectors for symmetrization
     Message from routine sym_rho_init:
     some processors have no G-vectors for symmetrization
     Message from routine sym_rho_init:
     some processors have no G-vectors for symmetrization
     Message from routine sym_rho_init:
     some processors have no G-vectors for symmetrization
     Message from routine sym_rho_init:
     some processors have no G-vectors for symmetrization
     Message from routine sym_rho_init:
     some processors have no G-vectors for symmetrization
     Message from routine sym_rho_init:
     some processors have no G-vectors for symmetrization
     Message from routine sym_rho_init:
     some processors have no G-vectors for symmetrization
     Message from routine sym_rho_init:
     some processors have no G-vectors for symmetrization
     Message from routine sym_rho_init:
     some processors have no G-vectors for symmetrization
     Message from routine sym_rho_init:
     some processors have no G-vectors for symmetrization
     Message from routine sym_rho_init:
     some processors have no G-vectors for symmetrization
     Message from routine sym_rho_init:
     some processors have no G-vectors for symmetrization
     Message from routine sym_rho_init:
     some processors have no G-vectors for symmetrization
     Message from routine sym_rho_init:
     some processors have no G-vectors for symmetrization
     Message from routine sym_rho_init:
     some processors have no G-vectors for symmetrization
     Message from routine sym_rho_init:
     some processors have no G-vectors for symmetrization
     Message from routine sym_rho_init:
     some processors have no G-vectors for symmetrization
     Message from routine sym_rho_init:
     some processors have no G-vectors for symmetrization
     Message from routine sym_rho_init:
     some processors have no G-vectors for symmetrization
     Message from routine sym_rho_init:
     some processors have no G-vectors for symmetrization
     Message from routine sym_rho_init:
     some processors have no G-vectors for symmetrization
     Message from routine sym_rho_init:
     some processors have no G-vectors for symmetrization
     Message from routine sym_rho_init:
     some processors have no G-vectors for symmetrization
     Message from routine sym_rho_init:
     some processors have no G-vectors for symmetrization
     Message from routine sym_rho_init:
     some processors have no G-vectors for symmetrization
     Message from routine sym_rho_init:
     some processors have no G-vectors for symmetrization
     Message from routine sym_rho_init:
     some processors have no G-vectors for symmetrization

     Initial potential from superposition of free atoms

     starting charge    7.99993, renormalised to    8.00000
     Starting wfc are   18 randomized atomic wfcs

     Writing output data file c.save

     total cpu time spent up to now is        8.2 secs

     per-process dynamical memory:    21.0 Mb

     Self-consistent Calculation

     iteration #  1     ecut=    50.00 Ry     beta=0.70
     Davidson diagonalization with overlap
     ethr =  1.00E-06,  avg # of iterations =  5.2

     total cpu time spent up to now is        8.7 secs

     total energy              =     -22.88429927 Ry
     Harris-Foulkes estimate   =     -22.93946723 Ry
     estimated scf accuracy    <       0.14204413 Ry

     iteration #  2     ecut=    50.00 Ry     beta=0.70
     Davidson diagonalization with overlap
     ethr =  1.78E-03,  avg # of iterations =  1.4

     total cpu time spent up to now is        8.9 secs

     total energy              =     -22.87283881 Ry
     Harris-Foulkes estimate   =     -22.88862524 Ry
     estimated scf accuracy    <       0.02907325 Ry

     iteration #  3     ecut=    50.00 Ry     beta=0.70
     Davidson diagonalization with overlap
     ethr =  3.63E-04,  avg # of iterations =  2.0

     total cpu time spent up to now is        9.2 secs

     total energy              =     -22.87626983 Ry
     Harris-Foulkes estimate   =     -22.87622327 Ry
     estimated scf accuracy    <       0.00013604 Ry

     iteration #  4     ecut=    50.00 Ry     beta=0.70
     Davidson diagonalization with overlap
     ethr =  1.70E-06,  avg # of iterations =  2.1

     total cpu time spent up to now is        9.4 secs

     total energy              =     -22.87630033 Ry
     Harris-Foulkes estimate   =     -22.87630489 Ry
     estimated scf accuracy    <       0.00001082 Ry

     iteration #  5     ecut=    50.00 Ry     beta=0.70
     Davidson diagonalization with overlap
     ethr =  1.35E-07,  avg # of iterations =  2.1

     total cpu time spent up to now is        9.7 secs

     total energy              =     -22.87630151 Ry
     Harris-Foulkes estimate   =     -22.87630167 Ry
     estimated scf accuracy    <       0.00000038 Ry

     iteration #  6     ecut=    50.00 Ry     beta=0.70
     Davidson diagonalization with overlap
     ethr =  4.70E-09,  avg # of iterations =  1.9

     total cpu time spent up to now is        9.9 secs

     total energy              =     -22.87630154 Ry
     Harris-Foulkes estimate   =     -22.87630155 Ry
     estimated scf accuracy    <       0.00000001 Ry

     iteration #  7     ecut=    50.00 Ry     beta=0.70
     Davidson diagonalization with overlap
     ethr =  1.61E-10,  avg # of iterations =  2.6

     total cpu time spent up to now is       10.2 secs

     total energy              =     -22.87630154 Ry
     Harris-Foulkes estimate   =     -22.87630154 Ry
     estimated scf accuracy    <          2.8E-11 Ry

     iteration #  8     ecut=    50.00 Ry     beta=0.70
     Davidson diagonalization with overlap
     ethr =  3.50E-13,  avg # of iterations =  2.0

     total cpu time spent up to now is       10.4 secs

     total energy              =     -22.87630154 Ry
     Harris-Foulkes estimate   =     -22.87630154 Ry
     estimated scf accuracy    <          1.6E-11 Ry

     iteration #  9     ecut=    50.00 Ry     beta=0.70
     Davidson diagonalization with overlap
     ethr =  1.98E-13,  avg # of iterations =  1.9

     total cpu time spent up to now is       10.7 secs

     total energy              =     -22.87630154 Ry
     Harris-Foulkes estimate   =     -22.87630154 Ry
     estimated scf accuracy    <          9.2E-13 Ry

     iteration # 10     ecut=    50.00 Ry     beta=0.70
     Davidson diagonalization with overlap
     ethr =  1.00E-13,  avg # of iterations =  1.1

     total cpu time spent up to now is       10.9 secs

     total energy              =     -22.87630154 Ry
     Harris-Foulkes estimate   =     -22.87630154 Ry
     estimated scf accuracy    <          4.7E-15 Ry

     iteration # 11     ecut=    50.00 Ry     beta=0.70
     Davidson diagonalization with overlap
     ethr =  1.00E-13,  avg # of iterations =  1.0

     total cpu time spent up to now is       11.0 secs

     total energy              =     -22.87630154 Ry
     Harris-Foulkes estimate   =     -22.87630154 Ry
     estimated scf accuracy    <          3.1E-16 Ry

     iteration # 12     ecut=    50.00 Ry     beta=0.70
     Davidson diagonalization with overlap
     ethr =  1.00E-13,  avg # of iterations =  1.0

     total cpu time spent up to now is       11.2 secs

     End of self-consistent calculation

          k = 0.0000 0.0000 0.0000 (   411 PWs)   bands (ev):

    -8.0327  13.8524  13.8524  13.8524  19.5480  19.5480  19.5480  28.2922

          k =-0.2524 0.2524-0.2524 (   438 PWs)   bands (ev):

    -6.2580   7.1403  12.0419  12.0419  21.8057  21.8057  22.4644  29.1024

          k = 0.5048-0.5048 0.5048 (   434 PWs)   bands (ev):

    -1.9097   0.0416  10.9550  10.9550  22.4521  22.4521  23.4711  29.6877

          k = 0.0000 0.5048 0.0000 (   431 PWs)   bands (ev):

    -5.6701   9.4325   9.5653   9.5653  18.4174  24.3524  25.7523  25.7523

          k = 0.7572-0.2524 0.7572 (   437 PWs)   bands (ev):

    -1.7713   2.8801   6.9578   8.7883  20.0526  25.5226  26.9867  27.7388

          k = 0.5048 0.0000 0.5048 (   435 PWs)   bands (ev):

    -3.3985   5.0865   5.9822  10.7295  21.9790  24.1021  26.5990  28.3640

          k = 0.0000-1.0096 0.0000 (   444 PWs)   bands (ev):

     0.9804   0.9804   7.3102   7.3102  18.7107  18.7107  31.1596  31.1596

          k =-0.5048-1.0096 0.0000 (   444 PWs)   bands (ev):

     1.8927   1.8927   5.1366   5.1366  24.5313  24.5313  26.7451  26.7451

     highest occupied, lowest unoccupied level (ev):    13.8524   18.4174

!    total energy              =     -22.87630154 Ry
     Harris-Foulkes estimate   =     -22.87630154 Ry
     estimated scf accuracy    <          3.6E-18 Ry

     The total energy is the sum of the following terms:

     one-electron contribution =       8.34216445 Ry
     hartree contribution      =       1.89306580 Ry
     xc contribution           =      -7.14966225 Ry
     ewald contribution        =     -25.96186954 Ry

     convergence has been achieved in  12 iterations

     Forces acting on atoms (cartesian axes, Ry/au):

     atom    1 type  1   force =    -0.00000000   -0.00000000   -0.00000000
     atom    2 type  1   force =     0.00000000    0.00000000    0.00000000

     Total force =     0.000000     Total SCF correction =     0.000000


     Computing stress (Cartesian axis) and pressure

          total   stress  (Ry/bohr**3)                   (kbar)     P=   -6.45
  -0.00004387   0.00000000   0.00000000         -6.45      0.00      0.00
   0.00000000  -0.00004387  -0.00000000          0.00     -6.45     -0.00
   0.00000000  -0.00000000  -0.00004387          0.00     -0.00     -6.45


     Writing output data file c.save
 
     init_run     :      0.24s CPU      0.27s WALL (       2 calls)
     electrons    :     10.32s CPU     10.51s WALL (       5 calls)
     update_pot   :      0.01s CPU      0.02s WALL (       3 calls)
     forces       :      0.02s CPU      0.04s WALL (       5 calls)
     stress       :      0.02s CPU      0.07s WALL (       5 calls)

     Called by init_run:
     wfcinit      :      0.22s CPU      0.23s WALL (       2 calls)
     potinit      :      0.00s CPU      0.00s WALL (       2 calls)

     Called by electrons:
     c_bands      :      9.86s CPU      9.97s WALL (      55 calls)
     sum_band     :      0.25s CPU      0.28s WALL (      55 calls)
     v_of_rho     :      0.02s CPU      0.02s WALL (      59 calls)
     mix_rho      :      0.14s CPU      0.16s WALL (      55 calls)

     Called by c_bands:
     init_us_2    :      0.01s CPU      0.01s WALL (     976 calls)
     cegterg      :      9.80s CPU      9.90s WALL (     440 calls)

     Called by sum_band:

     Called by *egterg:
     h_psi        :      1.13s CPU      1.16s WALL (    1316 calls)
     g_psi        :      0.00s CPU      0.00s WALL (     860 calls)
     cdiaghg      :      4.60s CPU      4.64s WALL (    1268 calls)

     Called by h_psi:
     h_psi:pot    :      1.12s CPU      1.15s WALL (    1316 calls)
     h_psi:calbec :      0.08s CPU      0.08s WALL (    1316 calls)
     vloc_psi     :      1.03s CPU      1.06s WALL (    1316 calls)
     add_vuspsi   :      0.01s CPU      0.01s WALL (    1316 calls)

     General routines
     calbec       :      0.10s CPU      0.10s WALL (    1516 calls)
     fft          :      0.02s CPU      0.02s WALL (     261 calls)
     ffts         :      0.03s CPU      0.03s WALL (     591 calls)
     fftw         :      1.18s CPU      1.22s WALL (   21936 calls)
 
     Parallel routines
     fft_scatter  :      1.12s CPU      1.15s WALL (   22788 calls)
 
     PWSCF        :    11.05s CPU        11.86s WALL

 
   This run was terminated on:  15:16:17   7Dec2020            

=------------------------------------------------------------------------------=
   JOB DONE.
=------------------------------------------------------------------------------=
