
     Program PWSCF v.6.1 (svn rev. 13369) starts on 17Dec2020 at  9:13:29 

     This program is part of the open-source Quantum ESPRESSO suite
     for quantum simulation of materials; please cite
         "P. Giannozzi et al., J. Phys.:Condens. Matter 21 395502 (2009);
          URL http://www.quantum-espresso.org", 
     in publications or presentations arising from this work. More details at
     http://www.quantum-espresso.org/quote

     Parallel version (MPI & OpenMP), running on      40 processor cores
     Number of MPI processes:                40
     Threads/MPI process:                     1
     R & G space division:  proc/nbgrp/npool/nimage =      40
     Waiting for input...
     Reading input from standard input

     Current dimensions of program PWSCF are:
     Max number of different atomic species (ntypx) = 10
     Max number of k-points (npk) =  40000
     Max angular momentum in pseudopotentials (lmaxx) =  3

     IMPORTANT: XC functional enforced from input :
     Exchange-correlation      = PZ ( 1  1  0  0 0 0)
     Any further DFT definition will be discarded
     Please, verify this is what you really want

               file C.pz-mt.fhi.UPF: wavefunction(s)  3d renormalized

     Subspace diagonalization in iterative solution of the eigenvalue problem:
     one sub-group per band group will be used
     scalapack distributed-memory algorithm (size of sub-group:  4*  4 procs)

 
     Parallelization info
     --------------------
     sticks:   dense  smooth     PW     G-vecs:    dense   smooth      PW
     Min           7       7      2                   88       88      16
     Max           8       8      3                   93       93      20
     Sum         313     313    109                 3647     3647     725
 


     bravais-lattice index     =            2
     lattice parameter (alat)  =       6.7034  a.u.
     unit-cell volume          =      75.3061 (a.u.)^3
     number of atoms/cell      =            2
     number of atomic types    =            1
     number of electrons       =         8.00
     number of Kohn-Sham states=            4
     kinetic-energy cutoff     =      50.0000  Ry
     charge density cutoff     =     200.0000  Ry
     convergence threshold     =      1.0E-20
     mixing beta               =       0.7000
     number of iterations used =            8  plain     mixing
     Exchange-correlation      = PZ ( 1  1  0  0 0 0)

     celldm(1)=   6.703426  celldm(2)=   0.000000  celldm(3)=   0.000000
     celldm(4)=   0.000000  celldm(5)=   0.000000  celldm(6)=   0.000000

     crystal axes: (cart. coord. in units of alat)
               a(1) = (  -0.500000   0.000000   0.500000 )  
               a(2) = (   0.000000   0.500000   0.500000 )  
               a(3) = (  -0.500000   0.500000   0.000000 )  

     reciprocal axes: (cart. coord. in units 2 pi/alat)
               b(1) = ( -1.000000 -1.000000  1.000000 )  
               b(2) = (  1.000000  1.000000  1.000000 )  
               b(3) = ( -1.000000  1.000000 -1.000000 )  


     PseudoPot. # 1 for  C read from file:
     ../C.pz-mt.fhi.UPF
     MD5 check sum: b7c38bc33a0cf75f44be89b84470f298
     Pseudo is Norm-conserving, Zval =  4.0
     Generated using FHI98PP, converted with fhi2upf.x v.5.0.2
     Using radial grid of  461 points,  2 beta functions with: 
                l(1) =   0
                l(2) =   1

     atomic species   valence    mass     pseudopotential
        C              4.00    12.01100      C( 1.00)

     48 Sym. Ops., with inversion, found (24 have fractional translation)



   Cartesian axes

     site n.     atom                  positions (alat units)
         1           C   tau(   1) = (   0.0000000   0.0000000   0.0000000  )
         2           C   tau(   2) = (  -0.2500000   0.2500000   0.2500000  )

     number of k points=   145

     Number of k-points >= 100: set verbosity='high' to print them.

     Dense  grid:     3647 G-vectors     FFT dimensions: (  24,  24,  24)

     Estimated max dynamical RAM per process >       0.18MB

     Estimated total allocated dynamical RAM >       7.13MB
     Message from routine sym_rho_init:
     some processors have no G-vectors for symmetrization
     Message from routine sym_rho_init:
     some processors have no G-vectors for symmetrization
     Message from routine sym_rho_init:
     some processors have no G-vectors for symmetrization
     Message from routine sym_rho_init:
     some processors have no G-vectors for symmetrization
     Message from routine sym_rho_init:
     some processors have no G-vectors for symmetrization
     Message from routine sym_rho_init:
     some processors have no G-vectors for symmetrization
     Message from routine sym_rho_init:
     some processors have no G-vectors for symmetrization
     Message from routine sym_rho_init:
     some processors have no G-vectors for symmetrization
     Message from routine sym_rho_init:
     some processors have no G-vectors for symmetrization

     Initial potential from superposition of free atoms

     starting charge    7.99993, renormalised to    8.00000
     Starting wfc are   18 randomized atomic wfcs

     total cpu time spent up to now is        0.6 secs

     per-process dynamical memory:    12.8 Mb

     Self-consistent Calculation

     iteration #  1     ecut=    50.00 Ry     beta=0.70
     Davidson diagonalization with overlap
     ethr =  1.00E-02,  avg # of iterations =  2.0

     total cpu time spent up to now is        1.3 secs

     total energy              =     -22.87324220 Ry
     Harris-Foulkes estimate   =     -22.94080105 Ry
     estimated scf accuracy    <       0.12919063 Ry

     iteration #  2     ecut=    50.00 Ry     beta=0.70
     Davidson diagonalization with overlap
     ethr =  1.61E-03,  avg # of iterations =  2.0

     total cpu time spent up to now is        2.1 secs

     total energy              =     -22.88497039 Ry
     Harris-Foulkes estimate   =     -22.88551022 Ry
     estimated scf accuracy    <       0.00196257 Ry

     iteration #  3     ecut=    50.00 Ry     beta=0.70
     Davidson diagonalization with overlap
     ethr =  2.45E-05,  avg # of iterations =  2.1

     total cpu time spent up to now is        3.0 secs

     total energy              =     -22.88533788 Ry
     Harris-Foulkes estimate   =     -22.88535252 Ry
     estimated scf accuracy    <       0.00007007 Ry

     iteration #  4     ecut=    50.00 Ry     beta=0.70
     Davidson diagonalization with overlap
     ethr =  8.76E-07,  avg # of iterations =  2.5

     total cpu time spent up to now is        3.9 secs

     total energy              =     -22.88535618 Ry
     Harris-Foulkes estimate   =     -22.88535789 Ry
     estimated scf accuracy    <       0.00000298 Ry

     iteration #  5     ecut=    50.00 Ry     beta=0.70
     Davidson diagonalization with overlap
     ethr =  3.73E-08,  avg # of iterations =  2.4

     total cpu time spent up to now is        4.9 secs

     total energy              =     -22.88535719 Ry
     Harris-Foulkes estimate   =     -22.88535720 Ry
     estimated scf accuracy    <       0.00000003 Ry

     iteration #  6     ecut=    50.00 Ry     beta=0.70
     Davidson diagonalization with overlap
     ethr =  3.15E-10,  avg # of iterations =  3.2

     total cpu time spent up to now is        6.0 secs

     total energy              =     -22.88535721 Ry
     Harris-Foulkes estimate   =     -22.88535721 Ry
     estimated scf accuracy    <          7.9E-10 Ry

     iteration #  7     ecut=    50.00 Ry     beta=0.70
     Davidson diagonalization with overlap
     ethr =  9.81E-12,  avg # of iterations =  2.3

     total cpu time spent up to now is        6.9 secs

     total energy              =     -22.88535721 Ry
     Harris-Foulkes estimate   =     -22.88535721 Ry
     estimated scf accuracy    <          2.4E-12 Ry

     iteration #  8     ecut=    50.00 Ry     beta=0.70
     Davidson diagonalization with overlap
     ethr =  1.00E-13,  avg # of iterations =  2.8

     total cpu time spent up to now is        8.0 secs

     total energy              =     -22.88535721 Ry
     Harris-Foulkes estimate   =     -22.88535721 Ry
     estimated scf accuracy    <          6.9E-13 Ry

     iteration #  9     ecut=    50.00 Ry     beta=0.70
     Davidson diagonalization with overlap
     ethr =  1.00E-13,  avg # of iterations =  1.0

     total cpu time spent up to now is        8.5 secs

     total energy              =     -22.88535721 Ry
     Harris-Foulkes estimate   =     -22.88535721 Ry
     estimated scf accuracy    <          1.3E-15 Ry

     iteration # 10     ecut=    50.00 Ry     beta=0.70
     Davidson diagonalization with overlap
     ethr =  1.00E-13,  avg # of iterations =  1.0

     total cpu time spent up to now is        9.1 secs

     total energy              =     -22.88535721 Ry
     Harris-Foulkes estimate   =     -22.88535721 Ry
     estimated scf accuracy    <          1.1E-16 Ry

     iteration # 11     ecut=    50.00 Ry     beta=0.70
     Davidson diagonalization with overlap
     ethr =  1.00E-13,  avg # of iterations =  1.0

     total cpu time spent up to now is        9.6 secs

     total energy              =     -22.88535721 Ry
     Harris-Foulkes estimate   =     -22.88535721 Ry
     estimated scf accuracy    <          7.9E-16 Ry

     iteration # 12     ecut=    50.00 Ry     beta=0.70
     Davidson diagonalization with overlap
     ethr =  1.00E-13,  avg # of iterations =  1.0

     total cpu time spent up to now is       10.1 secs

     total energy              =     -22.88535721 Ry
     Harris-Foulkes estimate   =     -22.88535721 Ry
     estimated scf accuracy    <          2.4E-17 Ry

     iteration # 13     ecut=    50.00 Ry     beta=0.70
     Davidson diagonalization with overlap
     ethr =  1.00E-13,  avg # of iterations =  1.0

     total cpu time spent up to now is       10.7 secs

     total energy              =     -22.88535721 Ry
     Harris-Foulkes estimate   =     -22.88535721 Ry
     estimated scf accuracy    <          3.0E-18 Ry

     iteration # 14     ecut=    50.00 Ry     beta=0.70
     Davidson diagonalization with overlap
     ethr =  1.00E-13,  avg # of iterations =  1.0

     total cpu time spent up to now is       11.2 secs

     total energy              =     -22.88535721 Ry
     Harris-Foulkes estimate   =     -22.88535721 Ry
     estimated scf accuracy    <          3.8E-19 Ry

     iteration # 15     ecut=    50.00 Ry     beta=0.70
     Davidson diagonalization with overlap
     ethr =  1.00E-13,  avg # of iterations =  1.0

     total cpu time spent up to now is       11.8 secs

     total energy              =     -22.88535721 Ry
     Harris-Foulkes estimate   =     -22.88535721 Ry
     estimated scf accuracy    <          2.4E-20 Ry

     iteration # 16     ecut=    50.00 Ry     beta=0.70
     Davidson diagonalization with overlap
     ethr =  1.00E-13,  avg # of iterations =  1.0

     total cpu time spent up to now is       12.3 secs

     total energy              =     -22.88535721 Ry
     Harris-Foulkes estimate   =     -22.88535721 Ry
     estimated scf accuracy    <          8.9E-20 Ry

     iteration # 17     ecut=    50.00 Ry     beta=0.70
     Davidson diagonalization with overlap
     ethr =  1.00E-13,  avg # of iterations =  1.0

     total cpu time spent up to now is       12.8 secs

     total energy              =     -22.88535721 Ry
     Harris-Foulkes estimate   =     -22.88535721 Ry
     estimated scf accuracy    <          5.7E-20 Ry

     iteration # 18     ecut=    50.00 Ry     beta=0.70
     Davidson diagonalization with overlap
     ethr =  1.00E-13,  avg # of iterations =  1.0

     total cpu time spent up to now is       13.4 secs

     total energy              =     -22.88535721 Ry
     Harris-Foulkes estimate   =     -22.88535721 Ry
     estimated scf accuracy    <          5.1E-20 Ry

     iteration # 19     ecut=    50.00 Ry     beta=0.70
     Davidson diagonalization with overlap
     ethr =  1.00E-13,  avg # of iterations =  1.0

     total cpu time spent up to now is       13.9 secs

     End of self-consistent calculation

     Number of k-points >= 100: set verbosity='high' to print the bands.

     highest occupied level (ev):    13.3018

!    total energy              =     -22.88535721 Ry
     Harris-Foulkes estimate   =     -22.88535721 Ry
     estimated scf accuracy    <          2.3E-21 Ry

     The total energy is the sum of the following terms:

     one-electron contribution =       8.01975941 Ry
     hartree contribution      =       1.90617661 Ry
     xc contribution           =      -7.09644979 Ry
     ewald contribution        =     -25.71484344 Ry

     convergence has been achieved in  19 iterations

     Writing output data file c.save
 
     init_run     :      0.51s CPU      0.53s WALL (       1 calls)
     electrons    :     13.02s CPU     13.32s WALL (       1 calls)

     Called by init_run:
     wfcinit      :      0.50s CPU      0.52s WALL (       1 calls)
     potinit      :      0.00s CPU      0.00s WALL (       1 calls)

     Called by electrons:
     c_bands      :     12.74s CPU     13.01s WALL (      19 calls)
     sum_band     :      0.27s CPU      0.29s WALL (      19 calls)
     v_of_rho     :      0.00s CPU      0.00s WALL (      20 calls)
     mix_rho      :      0.01s CPU      0.01s WALL (      19 calls)

     Called by c_bands:
     init_us_2    :      0.03s CPU      0.03s WALL (    5655 calls)
     cegterg      :     12.59s CPU     12.85s WALL (    2755 calls)

     Called by sum_band:

     Called by *egterg:
     h_psi        :      1.74s CPU      1.78s WALL (    7283 calls)
     g_psi        :      0.00s CPU      0.00s WALL (    4383 calls)
     cdiaghg      :      6.60s CPU      6.73s WALL (    7138 calls)

     Called by h_psi:
     h_psi:pot    :      1.72s CPU      1.77s WALL (    7283 calls)
     h_psi:calbec :      0.13s CPU      0.13s WALL (    7283 calls)
     vloc_psi     :      1.55s CPU      1.58s WALL (    7283 calls)
     add_vuspsi   :      0.03s CPU      0.03s WALL (    7283 calls)

     General routines
     calbec       :      0.12s CPU      0.12s WALL (    7283 calls)
     fft          :      0.00s CPU      0.01s WALL (      79 calls)
     fftw         :      1.70s CPU      1.75s WALL (   68566 calls)
 
     Parallel routines
     fft_scatter  :      1.37s CPU      1.41s WALL (   68645 calls)
 
     PWSCF        :    13.86s CPU        14.45s WALL

 
   This run was terminated on:   9:13:43  17Dec2020            

=------------------------------------------------------------------------------=
   JOB DONE.
=------------------------------------------------------------------------------=
