
     Program PWSCF v.6.1 (svn rev. 13369) starts on  1Feb2021 at 11: 6:31 

     This program is part of the open-source Quantum ESPRESSO suite
     for quantum simulation of materials; please cite
         "P. Giannozzi et al., J. Phys.:Condens. Matter 21 395502 (2009);
          URL http://www.quantum-espresso.org", 
     in publications or presentations arising from this work. More details at
     http://www.quantum-espresso.org/quote

     Parallel version (MPI & OpenMP), running on      40 processor cores
     Number of MPI processes:                40
     Threads/MPI process:                     1
     R & G space division:  proc/nbgrp/npool/nimage =      40
     Waiting for input...
     Reading input from standard input

     Current dimensions of program PWSCF are:
     Max number of different atomic species (ntypx) = 10
     Max number of k-points (npk) =  40000
     Max angular momentum in pseudopotentials (lmaxx) =  3

     IMPORTANT: XC functional enforced from input :
     Exchange-correlation      = PBE ( 1  4  3  4 0 0)
     Any further DFT definition will be discarded
     Please, verify this is what you really want


     Subspace diagonalization in iterative solution of the eigenvalue problem:
     one sub-group per band group will be used
     scalapack distributed-memory algorithm (size of sub-group:  4*  4 procs)

 
     Parallelization info
     --------------------
     sticks:   dense  smooth     PW     G-vecs:    dense   smooth      PW
     Min           7       7      2                   88       88      16
     Max           8       8      3                   93       93      20
     Sum         313     313    109                 3647     3647     725
 


     bravais-lattice index     =            2
     lattice parameter (alat)  =       6.7034  a.u.
     unit-cell volume          =      75.3061 (a.u.)^3
     number of atoms/cell      =            2
     number of atomic types    =            1
     number of electrons       =         8.00
     number of Kohn-Sham states=            8
     kinetic-energy cutoff     =      50.0000  Ry
     charge density cutoff     =     200.0000  Ry
     convergence threshold     =      1.0E-10
     mixing beta               =       0.7000
     number of iterations used =            8  local-TF  mixing
     Exchange-correlation      = PBE ( 1  4  3  4 0 0)
     nstep                     =           50


     celldm(1)=   6.703426  celldm(2)=   0.000000  celldm(3)=   0.000000
     celldm(4)=   0.000000  celldm(5)=   0.000000  celldm(6)=   0.000000

     crystal axes: (cart. coord. in units of alat)
               a(1) = (  -0.500000   0.000000   0.500000 )  
               a(2) = (   0.000000   0.500000   0.500000 )  
               a(3) = (  -0.500000   0.500000   0.000000 )  

     reciprocal axes: (cart. coord. in units 2 pi/alat)
               b(1) = ( -1.000000 -1.000000  1.000000 )  
               b(2) = (  1.000000  1.000000  1.000000 )  
               b(3) = ( -1.000000  1.000000 -1.000000 )  


     PseudoPot. # 1 for C  read from file:
     ~/PseudoPotential/upf/C_ONCV_PBE-1.0.upf
     MD5 check sum: Not computed, couldn't open file
     Pseudo is Norm-conserving, Zval =  4.0
     Generated using ONCVPSP code by D. R. Hamann
     Using radial grid of  602 points,  4 beta functions with: 
                l(1) =   0
                l(2) =   0
                l(3) =   1
                l(4) =   1

     atomic species   valence    mass     pseudopotential
        C              4.00    12.01100     C ( 1.00)

     48 Sym. Ops., with inversion, found (24 have fractional translation)



   Cartesian axes

     site n.     atom                  positions (alat units)
         1           C   tau(   1) = (   0.0000000   0.0000000   0.0000000  )
         2           C   tau(   2) = (  -0.2500000   0.2500000   0.2500000  )

     number of k points=   145

     Number of k-points >= 100: set verbosity='high' to print them.

     Dense  grid:     3647 G-vectors     FFT dimensions: (  24,  24,  24)

     Estimated max dynamical RAM per process >       0.31MB

     Estimated total allocated dynamical RAM >      12.60MB
     Message from routine sym_rho_init:
     some processors have no G-vectors for symmetrization
     Message from routine sym_rho_init:
     some processors have no G-vectors for symmetrization
     Message from routine sym_rho_init:
     some processors have no G-vectors for symmetrization
     Message from routine sym_rho_init:
     some processors have no G-vectors for symmetrization
     Message from routine sym_rho_init:
     some processors have no G-vectors for symmetrization
     Message from routine sym_rho_init:
     some processors have no G-vectors for symmetrization
     Message from routine sym_rho_init:
     some processors have no G-vectors for symmetrization
     Message from routine sym_rho_init:
     some processors have no G-vectors for symmetrization
     Message from routine sym_rho_init:
     some processors have no G-vectors for symmetrization

     Initial potential from superposition of free atoms

     starting charge    7.98607, renormalised to    8.00000
     Starting wfc are random

     total cpu time spent up to now is        0.4 secs

     per-process dynamical memory:    13.6 Mb

     Self-consistent Calculation

     iteration #  1     ecut=    50.00 Ry     beta=0.70
     Davidson diagonalization with overlap
     ethr =  1.00E-02,  avg # of iterations =  7.0

     total cpu time spent up to now is        3.8 secs

     total energy              =     -22.77616747 Ry
     Harris-Foulkes estimate   =     -22.81367462 Ry
     estimated scf accuracy    <       0.11684191 Ry

     iteration #  2     ecut=    50.00 Ry     beta=0.70
     Davidson diagonalization with overlap
     ethr =  1.46E-03,  avg # of iterations =  1.2

     total cpu time spent up to now is        4.7 secs

     total energy              =     -22.76827850 Ry
     Harris-Foulkes estimate   =     -22.77924161 Ry
     estimated scf accuracy    <       0.02594280 Ry

     iteration #  3     ecut=    50.00 Ry     beta=0.70
     Davidson diagonalization with overlap
     ethr =  3.24E-04,  avg # of iterations =  2.2

     total cpu time spent up to now is        5.9 secs

     total energy              =     -22.77089170 Ry
     Harris-Foulkes estimate   =     -22.77073312 Ry
     estimated scf accuracy    <       0.00012526 Ry

     iteration #  4     ecut=    50.00 Ry     beta=0.70
     Davidson diagonalization with overlap
     ethr =  1.57E-06,  avg # of iterations =  3.0

     total cpu time spent up to now is        7.6 secs

     total energy              =     -22.77096241 Ry
     Harris-Foulkes estimate   =     -22.77096258 Ry
     estimated scf accuracy    <       0.00001466 Ry

     iteration #  5     ecut=    50.00 Ry     beta=0.70
     Davidson diagonalization with overlap
     ethr =  1.83E-07,  avg # of iterations =  2.0

     total cpu time spent up to now is        8.7 secs

     total energy              =     -22.77096346 Ry
     Harris-Foulkes estimate   =     -22.77096367 Ry
     estimated scf accuracy    <       0.00000064 Ry

     iteration #  6     ecut=    50.00 Ry     beta=0.70
     Davidson diagonalization with overlap
     ethr =  8.02E-09,  avg # of iterations =  2.4

     total cpu time spent up to now is       10.0 secs

     total energy              =     -22.77096352 Ry
     Harris-Foulkes estimate   =     -22.77096352 Ry
     estimated scf accuracy    <       0.00000001 Ry

     iteration #  7     ecut=    50.00 Ry     beta=0.70
     Davidson diagonalization with overlap
     ethr =  1.44E-10,  avg # of iterations =  2.7

     total cpu time spent up to now is       11.5 secs

     total energy              =     -22.77096352 Ry
     Harris-Foulkes estimate   =     -22.77096352 Ry
     estimated scf accuracy    <          1.1E-09 Ry

     iteration #  8     ecut=    50.00 Ry     beta=0.70
     Davidson diagonalization with overlap
     ethr =  1.34E-11,  avg # of iterations =  2.5

     total cpu time spent up to now is       12.9 secs

     End of self-consistent calculation

     Number of k-points >= 100: set verbosity='high' to print the bands.

     highest occupied, lowest unoccupied level (ev):    13.6582   17.8393

!    total energy              =     -22.77096352 Ry
     Harris-Foulkes estimate   =     -22.77096352 Ry
     estimated scf accuracy    <          1.6E-11 Ry

     The total energy is the sum of the following terms:

     one-electron contribution =       8.17270148 Ry
     hartree contribution      =       1.91483667 Ry
     xc contribution           =      -7.14365822 Ry
     ewald contribution        =     -25.71484344 Ry

     convergence has been achieved in   8 iterations

     Forces acting on atoms (cartesian axes, Ry/au):

     atom    1 type  1   force =     0.00000000    0.00000000    0.00000000
     atom    2 type  1   force =     0.00000000    0.00000000    0.00000000

     Total force =     0.000000     Total SCF correction =     0.000000


     Computing stress (Cartesian axis) and pressure

          total   stress  (Ry/bohr**3)                   (kbar)     P=  -64.95
  -0.00044155  -0.00000000  -0.00000000        -64.95     -0.00     -0.00
  -0.00000000  -0.00044155  -0.00000000         -0.00    -64.95     -0.00
  -0.00000000  -0.00000000  -0.00044155         -0.00     -0.00    -64.95


     BFGS Geometry Optimization

     number of scf cycles    =   1
     number of bfgs steps    =   0

     enthalpy new            =     -22.7709635216 Ry

     new trust radius        =       0.0191588013 bohr
     new conv_thr            =            1.0E-10 Ry

     new unit-cell volume =     72.83969 a.u.^3 (    10.79373 Ang^3 )
     density =      3.69562 g/cm^3

CELL_PARAMETERS (alat=  6.70342551)
  -0.494480584  -0.000000000   0.494480584
  -0.000000000   0.494480584   0.494480584
  -0.494480584   0.494480584  -0.000000000

ATOMIC_POSITIONS (crystal)
C        0.000000000   0.000000000   0.000000000
C        0.250000000   0.250000000   0.250000000



     Writing output data file c.save
     NEW-OLD atomic charge density approx. for the potential
     extrapolated charge    7.72958, renormalised to    8.00000

     total cpu time spent up to now is       13.2 secs

     per-process dynamical memory:    19.0 Mb

     Self-consistent Calculation

     iteration #  1     ecut=    50.00 Ry     beta=0.70
     Davidson diagonalization with overlap
     ethr =  1.00E-06,  avg # of iterations =  4.0

     total cpu time spent up to now is       15.1 secs

     total energy              =     -22.76959648 Ry
     Harris-Foulkes estimate   =     -22.58085811 Ry
     estimated scf accuracy    <       0.00057038 Ry

     iteration #  2     ecut=    50.00 Ry     beta=0.70
     Davidson diagonalization with overlap
     ethr =  7.13E-06,  avg # of iterations =  3.4

     total cpu time spent up to now is       17.0 secs

     total energy              =     -22.77065175 Ry
     Harris-Foulkes estimate   =     -22.77067891 Ry
     estimated scf accuracy    <       0.00011107 Ry

     iteration #  3     ecut=    50.00 Ry     beta=0.70
     Davidson diagonalization with overlap
     ethr =  1.39E-06,  avg # of iterations =  1.0

     total cpu time spent up to now is       17.8 secs

     total energy              =     -22.77063496 Ry
     Harris-Foulkes estimate   =     -22.77065355 Ry
     estimated scf accuracy    <       0.00004202 Ry

     iteration #  4     ecut=    50.00 Ry     beta=0.70
     Davidson diagonalization with overlap
     ethr =  5.25E-07,  avg # of iterations =  2.0

     total cpu time spent up to now is       18.9 secs

     total energy              =     -22.77063781 Ry
     Harris-Foulkes estimate   =     -22.77063795 Ry
     estimated scf accuracy    <       0.00000049 Ry

     iteration #  5     ecut=    50.00 Ry     beta=0.70
     Davidson diagonalization with overlap
     ethr =  6.10E-09,  avg # of iterations =  2.7

     total cpu time spent up to now is       20.5 secs

     total energy              =     -22.77063794 Ry
     Harris-Foulkes estimate   =     -22.77063797 Ry
     estimated scf accuracy    <       0.00000007 Ry

     iteration #  6     ecut=    50.00 Ry     beta=0.70
     Davidson diagonalization with overlap
     ethr =  8.34E-10,  avg # of iterations =  2.1

     total cpu time spent up to now is       21.6 secs

     total energy              =     -22.77063795 Ry
     Harris-Foulkes estimate   =     -22.77063795 Ry
     estimated scf accuracy    <          2.3E-09 Ry

     iteration #  7     ecut=    50.00 Ry     beta=0.70
     Davidson diagonalization with overlap
     ethr =  2.87E-11,  avg # of iterations =  2.9

     total cpu time spent up to now is       23.2 secs

     End of self-consistent calculation

     Number of k-points >= 100: set verbosity='high' to print the bands.

     highest occupied, lowest unoccupied level (ev):    14.2660   18.5292

!    total energy              =     -22.77063795 Ry
     Harris-Foulkes estimate   =     -22.77063795 Ry
     estimated scf accuracy    <          1.8E-11 Ry

     The total energy is the sum of the following terms:

     one-electron contribution =       8.54740765 Ry
     hartree contribution      =       1.88274991 Ry
     xc contribution           =      -7.19892174 Ry
     ewald contribution        =     -26.00187377 Ry

     convergence has been achieved in   7 iterations

     Forces acting on atoms (cartesian axes, Ry/au):

     atom    1 type  1   force =    -0.00000000   -0.00000000   -0.00000000
     atom    2 type  1   force =     0.00000000    0.00000000    0.00000000

     Total force =     0.000000     Total SCF correction =     0.000000


     Computing stress (Cartesian axis) and pressure

          total   stress  (Ry/bohr**3)                   (kbar)     P=  107.96
   0.00073387   0.00000000  -0.00000000        107.96      0.00     -0.00
   0.00000000   0.00073387  -0.00000000          0.00    107.96     -0.00
  -0.00000000  -0.00000000   0.00073387         -0.00     -0.00    107.96


     number of scf cycles    =   2
     number of bfgs steps    =   1

     enthalpy old            =     -22.7709635216 Ry
     enthalpy new            =     -22.7706379487 Ry

     CASE: enthalpy_new > enthalpy_old

     new trust radius        =       0.0073525402 bohr
     new conv_thr            =            1.0E-10 Ry

     new unit-cell volume =     74.34783 a.u.^3 (    11.01721 Ang^3 )
     density =      3.62065 g/cm^3

CELL_PARAMETERS (alat=  6.70342551)
  -0.497870034  -0.000000000   0.497870034
  -0.000000000   0.497870034   0.497870034
  -0.497870034   0.497870034  -0.000000000

ATOMIC_POSITIONS (crystal)
C        0.000000000   0.000000000   0.000000000
C        0.250000000   0.250000000   0.250000000



     Writing output data file c.save
     NEW-OLD atomic charge density approx. for the potential
     extrapolated charge    8.16200, renormalised to    8.00000

     total cpu time spent up to now is       23.4 secs

     per-process dynamical memory:    23.1 Mb

     Self-consistent Calculation

     iteration #  1     ecut=    50.00 Ry     beta=0.70
     Davidson diagonalization with overlap
     ethr =  1.00E-06,  avg # of iterations =  3.8

     total cpu time spent up to now is       25.4 secs

     total energy              =     -22.77079948 Ry
     Harris-Foulkes estimate   =     -22.88345354 Ry
     estimated scf accuracy    <       0.00018417 Ry

     iteration #  2     ecut=    50.00 Ry     beta=0.70
     Davidson diagonalization with overlap
     ethr =  2.30E-06,  avg # of iterations =  3.5

     total cpu time spent up to now is       27.3 secs

     total energy              =     -22.77118595 Ry
     Harris-Foulkes estimate   =     -22.77119743 Ry
     estimated scf accuracy    <       0.00004707 Ry

     iteration #  3     ecut=    50.00 Ry     beta=0.70
     Davidson diagonalization with overlap
     ethr =  5.88E-07,  avg # of iterations =  1.0

     total cpu time spent up to now is       28.1 secs

     total energy              =     -22.77117809 Ry
     Harris-Foulkes estimate   =     -22.77118663 Ry
     estimated scf accuracy    <       0.00001893 Ry

     iteration #  4     ecut=    50.00 Ry     beta=0.70
     Davidson diagonalization with overlap
     ethr =  2.37E-07,  avg # of iterations =  2.0

     total cpu time spent up to now is       29.3 secs

     total energy              =     -22.77117933 Ry
     Harris-Foulkes estimate   =     -22.77117942 Ry
     estimated scf accuracy    <       0.00000028 Ry

     iteration #  5     ecut=    50.00 Ry     beta=0.70
     Davidson diagonalization with overlap
     ethr =  3.52E-09,  avg # of iterations =  2.6

     total cpu time spent up to now is       30.8 secs

     total energy              =     -22.77117940 Ry
     Harris-Foulkes estimate   =     -22.77117941 Ry
     estimated scf accuracy    <       0.00000004 Ry

     iteration #  6     ecut=    50.00 Ry     beta=0.70
     Davidson diagonalization with overlap
     ethr =  4.74E-10,  avg # of iterations =  2.1

     total cpu time spent up to now is       32.0 secs

     total energy              =     -22.77117940 Ry
     Harris-Foulkes estimate   =     -22.77117940 Ry
     estimated scf accuracy    <          1.1E-09 Ry

     iteration #  7     ecut=    50.00 Ry     beta=0.70
     Davidson diagonalization with overlap
     ethr =  1.36E-11,  avg # of iterations =  2.9

     total cpu time spent up to now is       33.6 secs

     End of self-consistent calculation

     Number of k-points >= 100: set verbosity='high' to print the bands.

     highest occupied, lowest unoccupied level (ev):    13.8900   18.1025

!    total energy              =     -22.77117940 Ry
     Harris-Foulkes estimate   =     -22.77117940 Ry
     estimated scf accuracy    <          4.7E-12 Ry

     The total energy is the sum of the following terms:

     one-electron contribution =       8.31603880 Ry
     hartree contribution      =       1.90244029 Ry
     xc contribution           =      -7.16480293 Ry
     ewald contribution        =     -25.82485556 Ry

     convergence has been achieved in   7 iterations

     Forces acting on atoms (cartesian axes, Ry/au):

     atom    1 type  1   force =    -0.00000000    0.00000000    0.00000000
     atom    2 type  1   force =     0.00000000   -0.00000000   -0.00000000

     Total force =     0.000000     Total SCF correction =     0.000000


     Computing stress (Cartesian axis) and pressure

          total   stress  (Ry/bohr**3)                   (kbar)     P=   -0.73
  -0.00000493   0.00000000   0.00000000         -0.73      0.00      0.00
   0.00000000  -0.00000493  -0.00000000          0.00     -0.73     -0.00
  -0.00000000  -0.00000000  -0.00000493         -0.00     -0.00     -0.73


     number of scf cycles    =   3
     number of bfgs steps    =   1

     enthalpy old            =     -22.7709635216 Ry
     enthalpy new            =     -22.7711794008 Ry

     CASE: enthalpy_new < enthalpy_old

     small trust_radius: resetting bfgs history

     new trust radius        =       0.0001000000 bohr
     new conv_thr            =            1.0E-12 Ry

     new unit-cell volume =     74.33490 a.u.^3 (    11.01530 Ang^3 )
     density =      3.62128 g/cm^3

CELL_PARAMETERS (alat=  6.70342551)
  -0.497841164  -0.000000000   0.497841164
  -0.000000000   0.497841164   0.497841164
  -0.497841164   0.497841164  -0.000000000

ATOMIC_POSITIONS (crystal)
C        0.000000000   0.000000000  -0.000000000
C        0.250000000   0.250000000   0.250000000



     Writing output data file c.save
     NEW-OLD atomic charge density approx. for the potential
     extrapolated charge    7.99861, renormalised to    8.00000

     total cpu time spent up to now is       33.8 secs

     per-process dynamical memory:    27.4 Mb

     Self-consistent Calculation

     iteration #  1     ecut=    50.00 Ry     beta=0.70
     Davidson diagonalization with overlap
     ethr =  1.00E-06,  avg # of iterations =  1.0

     Threshold (ethr) on eigenvalues was too large:
     Diagonalizing with lowered threshold

     Davidson diagonalization with overlap
     ethr =  1.91E-10,  avg # of iterations =  2.5

     total cpu time spent up to now is       35.6 secs

     total energy              =     -22.77117940 Ry
     Harris-Foulkes estimate   =     -22.77021732 Ry
     estimated scf accuracy    <       0.00000001 Ry

     iteration #  2     ecut=    50.00 Ry     beta=0.70
     Davidson diagonalization with overlap
     ethr =  1.80E-10,  avg # of iterations =  3.5

     total cpu time spent up to now is       37.6 secs

     total energy              =     -22.77117943 Ry
     Harris-Foulkes estimate   =     -22.77117943 Ry
     estimated scf accuracy    <          3.2E-09 Ry

     iteration #  3     ecut=    50.00 Ry     beta=0.70
     Davidson diagonalization with overlap
     ethr =  4.05E-11,  avg # of iterations =  1.0

     total cpu time spent up to now is       38.4 secs

     total energy              =     -22.77117943 Ry
     Harris-Foulkes estimate   =     -22.77117943 Ry
     estimated scf accuracy    <          1.3E-09 Ry

     iteration #  4     ecut=    50.00 Ry     beta=0.70
     Davidson diagonalization with overlap
     ethr =  1.58E-11,  avg # of iterations =  2.0

     total cpu time spent up to now is       39.5 secs

     total energy              =     -22.77117943 Ry
     Harris-Foulkes estimate   =     -22.77117943 Ry
     estimated scf accuracy    <          1.7E-11 Ry

     iteration #  5     ecut=    50.00 Ry     beta=0.70
     Davidson diagonalization with overlap
     ethr =  2.10E-13,  avg # of iterations =  2.7

     total cpu time spent up to now is       41.0 secs

     total energy              =     -22.77117943 Ry
     Harris-Foulkes estimate   =     -22.77117943 Ry
     estimated scf accuracy    <          2.5E-12 Ry

     iteration #  6     ecut=    50.00 Ry     beta=0.70
     Davidson diagonalization with overlap
     ethr =  1.00E-13,  avg # of iterations =  1.1

     total cpu time spent up to now is       41.9 secs

     End of self-consistent calculation

     Number of k-points >= 100: set verbosity='high' to print the bands.

     highest occupied, lowest unoccupied level (ev):    13.8931   18.1061

!    total energy              =     -22.77117943 Ry
     Harris-Foulkes estimate   =     -22.77117943 Ry
     estimated scf accuracy    <          7.4E-14 Ry

     The total energy is the sum of the following terms:

     one-electron contribution =       8.31799227 Ry
     hartree contribution      =       1.90227269 Ry
     xc contribution           =      -7.16509122 Ry
     ewald contribution        =     -25.82635317 Ry

     convergence has been achieved in   6 iterations

     Forces acting on atoms (cartesian axes, Ry/au):

     atom    1 type  1   force =     0.00000000    0.00000000    0.00000000
     atom    2 type  1   force =     0.00000000    0.00000000    0.00000000

     Total force =     0.000000     Total SCF correction =     0.000000


     Computing stress (Cartesian axis) and pressure

          total   stress  (Ry/bohr**3)                   (kbar)     P=    0.17
   0.00000114   0.00000000   0.00000000          0.17      0.00      0.00
   0.00000000   0.00000114  -0.00000000          0.00      0.17     -0.00
   0.00000000  -0.00000000   0.00000114          0.00     -0.00      0.17


     bfgs converged in   4 scf cycles and   2 bfgs steps
     (criteria: energy <  1.0E-04 Ry, force <  1.0E-03Ry/Bohr, cell <  5.0E-01kbar)

     End of BFGS Geometry Optimization

     Final enthalpy =     -22.7711794254 Ry
Begin final coordinates
     new unit-cell volume =     74.33490 a.u.^3 (    11.01530 Ang^3 )
     density =      3.62128 g/cm^3

CELL_PARAMETERS (alat=  6.70342551)
  -0.497841164  -0.000000000   0.497841164
  -0.000000000   0.497841164   0.497841164
  -0.497841164   0.497841164  -0.000000000

ATOMIC_POSITIONS (crystal)
C        0.000000000   0.000000000  -0.000000000
C        0.250000000   0.250000000   0.250000000
End final coordinates



     A final scf calculation at the relaxed structure.
     The G-vectors are recalculated for the final unit cell
     Results may differ from those at the preceding step.
 
     Parallelization info
     --------------------
     sticks:   dense  smooth     PW     G-vecs:    dense   smooth      PW
     Min           7       7      2                   87       87      16
     Max           8       8      3                   90       90      20
     Sum         313     313    109                 3527     3527     725
 


     bravais-lattice index     =            2
     lattice parameter (alat)  =       6.7034  a.u.
     unit-cell volume          =      74.3349 (a.u.)^3
     number of atoms/cell      =            2
     number of atomic types    =            1
     number of electrons       =         8.00
     number of Kohn-Sham states=            8
     kinetic-energy cutoff     =      50.0000  Ry
     charge density cutoff     =     200.0000  Ry
     convergence threshold     =      1.0E-12
     mixing beta               =       0.7000
     number of iterations used =            8  local-TF  mixing
     Exchange-correlation      = PBE ( 1  4  3  4 0 0)

     celldm(1)=   6.703426  celldm(2)=   0.000000  celldm(3)=   0.000000
     celldm(4)=   0.000000  celldm(5)=   0.000000  celldm(6)=   0.000000

     crystal axes: (cart. coord. in units of alat)
               a(1) = (  -0.497841  -0.000000   0.497841 )  
               a(2) = (  -0.000000   0.497841   0.497841 )  
               a(3) = (  -0.497841   0.497841  -0.000000 )  

     reciprocal axes: (cart. coord. in units 2 pi/alat)
               b(1) = ( -1.004336 -1.004336  1.004336 )  
               b(2) = (  1.004336  1.004336  1.004336 )  
               b(3) = ( -1.004336  1.004336 -1.004336 )  


     PseudoPot. # 1 for C  read from file:
     ~/PseudoPotential/upf/C_ONCV_PBE-1.0.upf
     MD5 check sum: Not computed, couldn't open file
     Pseudo is Norm-conserving, Zval =  4.0
     Generated using ONCVPSP code by D. R. Hamann
     Using radial grid of  602 points,  4 beta functions with: 
                l(1) =   0
                l(2) =   0
                l(3) =   1
                l(4) =   1

     atomic species   valence    mass     pseudopotential
        C              4.00    12.01100     C ( 1.00)

     48 Sym. Ops., with inversion, found (24 have fractional translation)



   Cartesian axes

     site n.     atom                  positions (alat units)
         1           C   tau(   1) = (  -0.0000000   0.0000000   0.0000000  )
         2           C   tau(   2) = (  -0.2489206   0.2489206   0.2489206  )

     number of k points=   145

     Number of k-points >= 100: set verbosity='high' to print them.

     Dense  grid:     3527 G-vectors     FFT dimensions: (  24,  24,  24)

     Estimated max dynamical RAM per process >       0.31MB

     Estimated total allocated dynamical RAM >      12.60MB
     Message from routine sym_rho_init:
     some processors have no G-vectors for symmetrization
     Message from routine sym_rho_init:
     some processors have no G-vectors for symmetrization
     Message from routine sym_rho_init:
     some processors have no G-vectors for symmetrization
     Message from routine sym_rho_init:
     some processors have no G-vectors for symmetrization
     Message from routine sym_rho_init:
     some processors have no G-vectors for symmetrization
     Message from routine sym_rho_init:
     some processors have no G-vectors for symmetrization
     Message from routine sym_rho_init:
     some processors have no G-vectors for symmetrization
     Message from routine sym_rho_init:
     some processors have no G-vectors for symmetrization
     Message from routine sym_rho_init:
     some processors have no G-vectors for symmetrization

     Initial potential from superposition of free atoms

     starting charge    7.98607, renormalised to    8.00000
     Starting wfc are random

     Writing output data file c.save

     total cpu time spent up to now is       42.4 secs

     per-process dynamical memory:    30.7 Mb

     Self-consistent Calculation

     iteration #  1     ecut=    50.00 Ry     beta=0.70
     Davidson diagonalization with overlap
     ethr =  1.00E-06,  avg # of iterations = 11.4

     total cpu time spent up to now is       47.9 secs

     total energy              =     -22.77565832 Ry
     Harris-Foulkes estimate   =     -22.81533712 Ry
     estimated scf accuracy    <       0.12156472 Ry

     iteration #  2     ecut=    50.00 Ry     beta=0.70
     Davidson diagonalization with overlap
     ethr =  1.52E-03,  avg # of iterations =  1.1

     total cpu time spent up to now is       48.7 secs

     total energy              =     -22.76760374 Ry
     Harris-Foulkes estimate   =     -22.77865093 Ry
     estimated scf accuracy    <       0.02620435 Ry

     iteration #  3     ecut=    50.00 Ry     beta=0.70
     Davidson diagonalization with overlap
     ethr =  3.28E-04,  avg # of iterations =  2.0

     total cpu time spent up to now is       49.9 secs

     total energy              =     -22.77018730 Ry
     Harris-Foulkes estimate   =     -22.77001488 Ry
     estimated scf accuracy    <       0.00012777 Ry

     iteration #  4     ecut=    50.00 Ry     beta=0.70
     Davidson diagonalization with overlap
     ethr =  1.60E-06,  avg # of iterations =  3.0

     total cpu time spent up to now is       51.5 secs

     total energy              =     -22.77025741 Ry
     Harris-Foulkes estimate   =     -22.77025865 Ry
     estimated scf accuracy    <       0.00000914 Ry

     iteration #  5     ecut=    50.00 Ry     beta=0.70
     Davidson diagonalization with overlap
     ethr =  1.14E-07,  avg # of iterations =  2.2

     total cpu time spent up to now is       52.8 secs

     total energy              =     -22.77025841 Ry
     Harris-Foulkes estimate   =     -22.77025847 Ry
     estimated scf accuracy    <       0.00000085 Ry

     iteration #  6     ecut=    50.00 Ry     beta=0.70
     Davidson diagonalization with overlap
     ethr =  1.07E-08,  avg # of iterations =  2.3

     total cpu time spent up to now is       54.1 secs

     total energy              =     -22.77025852 Ry
     Harris-Foulkes estimate   =     -22.77025852 Ry
     estimated scf accuracy    <       0.00000001 Ry

     iteration #  7     ecut=    50.00 Ry     beta=0.70
     Davidson diagonalization with overlap
     ethr =  1.84E-10,  avg # of iterations =  2.3

     total cpu time spent up to now is       55.4 secs

     total energy              =     -22.77025852 Ry
     Harris-Foulkes estimate   =     -22.77025852 Ry
     estimated scf accuracy    <          6.8E-10 Ry

     iteration #  8     ecut=    50.00 Ry     beta=0.70
     Davidson diagonalization with overlap
     ethr =  8.45E-12,  avg # of iterations =  3.1

     total cpu time spent up to now is       57.1 secs

     total energy              =     -22.77025852 Ry
     Harris-Foulkes estimate   =     -22.77025852 Ry
     estimated scf accuracy    <          6.0E-12 Ry

     iteration #  9     ecut=    50.00 Ry     beta=0.70
     Davidson diagonalization with overlap
     ethr =  1.00E-13,  avg # of iterations =  2.2

     total cpu time spent up to now is       58.4 secs

     End of self-consistent calculation

     Number of k-points >= 100: set verbosity='high' to print the bands.

     highest occupied, lowest unoccupied level (ev):    13.8922   18.1057

!    total energy              =     -22.77025852 Ry
     Harris-Foulkes estimate   =     -22.77025852 Ry
     estimated scf accuracy    <          2.1E-13 Ry

     The total energy is the sum of the following terms:

     one-electron contribution =       8.31928265 Ry
     hartree contribution      =       1.90185371 Ry
     xc contribution           =      -7.16504170 Ry
     ewald contribution        =     -25.82635318 Ry

     convergence has been achieved in   9 iterations

     Forces acting on atoms (cartesian axes, Ry/au):

     atom    1 type  1   force =    -0.00000000   -0.00000000   -0.00000000
     atom    2 type  1   force =    -0.00000000   -0.00000000   -0.00000000

     Total force =     0.000000     Total SCF correction =     0.000000


     Computing stress (Cartesian axis) and pressure

          total   stress  (Ry/bohr**3)                   (kbar)     P=   -5.62
  -0.00003823   0.00000000  -0.00000000         -5.62      0.00     -0.00
   0.00000000  -0.00003823  -0.00000000          0.00     -5.62     -0.00
  -0.00000000  -0.00000000  -0.00003823         -0.00     -0.00     -5.62


     Writing output data file c.save
 
     init_run     :      0.70s CPU      0.72s WALL (       2 calls)
     electrons    :     55.81s CPU     56.79s WALL (       5 calls)
     update_pot   :      0.01s CPU      0.02s WALL (       3 calls)
     forces       :      0.09s CPU      0.10s WALL (       5 calls)
     stress       :      0.11s CPU      0.11s WALL (       5 calls)

     Called by init_run:
     wfcinit      :      0.69s CPU      0.70s WALL (       2 calls)
     potinit      :      0.00s CPU      0.00s WALL (       2 calls)

     Called by electrons:
     c_bands      :     54.64s CPU     55.52s WALL (      38 calls)
     sum_band     :      1.11s CPU      1.17s WALL (      38 calls)
     v_of_rho     :      0.02s CPU      0.02s WALL (      42 calls)
     mix_rho      :      0.04s CPU      0.04s WALL (      38 calls)

     Called by c_bands:
     init_us_2    :      0.08s CPU      0.09s WALL (   12760 calls)
     cegterg      :     54.26s CPU     55.13s WALL (    5510 calls)

     Called by sum_band:

     Called by *egterg:
     h_psi        :      8.68s CPU      8.88s WALL (   20633 calls)
     g_psi        :      0.02s CPU      0.02s WALL (   14833 calls)
     cdiaghg      :     30.50s CPU     30.84s WALL (   19763 calls)

     Called by h_psi:
     h_psi:pot    :      8.64s CPU      8.84s WALL (   20633 calls)
     h_psi:calbec :      0.48s CPU      0.49s WALL (   20633 calls)
     vloc_psi     :      7.97s CPU      8.15s WALL (   20633 calls)
     add_vuspsi   :      0.12s CPU      0.12s WALL (   20633 calls)

     General routines
     calbec       :      0.53s CPU      0.55s WALL (   24258 calls)
     fft          :      0.02s CPU      0.02s WALL (     502 calls)
     ffts         :      0.02s CPU      0.02s WALL (     486 calls)
     fftw         :      8.50s CPU      8.73s WALL (  313584 calls)
 
     Parallel routines
     fft_scatter  :      6.92s CPU      7.12s WALL (  314572 calls)
 
     PWSCF        :  0m57.87s CPU     1m 0.44s WALL

 
   This run was terminated on:  11: 7:31   1Feb2021            

=------------------------------------------------------------------------------=
   JOB DONE.
=------------------------------------------------------------------------------=
