
     Program PWSCF v.6.1 (svn rev. 13369) starts on 10Jan2021 at 10:11: 5 

     This program is part of the open-source Quantum ESPRESSO suite
     for quantum simulation of materials; please cite
         "P. Giannozzi et al., J. Phys.:Condens. Matter 21 395502 (2009);
          URL http://www.quantum-espresso.org", 
     in publications or presentations arising from this work. More details at
     http://www.quantum-espresso.org/quote

     Parallel version (MPI & OpenMP), running on      80 processor cores
     Number of MPI processes:                80
     Threads/MPI process:                     1
     R & G space division:  proc/nbgrp/npool/nimage =      80
     Waiting for input...
     Reading input from standard input

     Current dimensions of program PWSCF are:
     Max number of different atomic species (ntypx) = 10
     Max number of k-points (npk) =  40000
     Max angular momentum in pseudopotentials (lmaxx) =  3

     IMPORTANT: XC functional enforced from input :
     Exchange-correlation      = PBE ( 1  4  3  4 0 0)
     Any further DFT definition will be discarded
     Please, verify this is what you really want


     Subspace diagonalization in iterative solution of the eigenvalue problem:
     one sub-group per band group will be used
     scalapack distributed-memory algorithm (size of sub-group:  6*  6 procs)

 
     Parallelization info
     --------------------
     sticks:   dense  smooth     PW     G-vecs:    dense   smooth      PW
     Min          97      97     24                 5625     5625     702
     Max          98      98     25                 5629     5629     704
     Sum        7765    7765   1945               450159   450159   56233
 


     bravais-lattice index     =            2
     lattice parameter (alat)  =      33.5171  a.u.
     unit-cell volume          =    9413.2672 (a.u.)^3
     number of atoms/cell      =          250
     number of atomic types    =            2
     number of electrons       =       998.00
     number of Kohn-Sham states=          600
     kinetic-energy cutoff     =      50.0000  Ry
     charge density cutoff     =     200.0000  Ry
     convergence threshold     =      1.0E-10
     mixing beta               =       0.7000
     number of iterations used =            8  local-TF  mixing
     Exchange-correlation      = PBE ( 1  4  3  4 0 0)
     nstep                     =           50


     celldm(1)=  33.517128  celldm(2)=   0.000000  celldm(3)=   0.000000
     celldm(4)=   0.000000  celldm(5)=   0.000000  celldm(6)=   0.000000

     crystal axes: (cart. coord. in units of alat)
               a(1) = (  -0.500000   0.000000   0.500000 )  
               a(2) = (   0.000000   0.500000   0.500000 )  
               a(3) = (  -0.500000   0.500000   0.000000 )  

     reciprocal axes: (cart. coord. in units 2 pi/alat)
               b(1) = ( -1.000000 -1.000000  1.000000 )  
               b(2) = (  1.000000  1.000000  1.000000 )  
               b(3) = ( -1.000000  1.000000 -1.000000 )  


     PseudoPot. # 1 for C  read from file:
     ~/PseudoPotential/upf/C_ONCV_PBE-1.0.upf
     MD5 check sum: Not computed, couldn't open file
     Pseudo is Norm-conserving, Zval =  4.0
     Generated using ONCVPSP code by D. R. Hamann
     Using radial grid of  602 points,  4 beta functions with: 
                l(1) =   0
                l(2) =   0
                l(3) =   1
                l(4) =   1

     PseudoPot. # 2 for B  read from file:
     ~/PseudoPotential/upf/B_ONCV_PBE-1.0.upf
     MD5 check sum: Not computed, couldn't open file
     Pseudo is Norm-conserving, Zval =  3.0
     Generated using ONCVPSP code by D. R. Hamann
     Using radial grid of  602 points,  4 beta functions with: 
                l(1) =   0
                l(2) =   0
                l(3) =   1
                l(4) =   1

     atomic species   valence    mass     pseudopotential
        C              4.00    12.01100     C ( 1.00)
        B              3.00    10.81100     B ( 1.00)

     No symmetry found



   Cartesian axes

     site n.     atom                  positions (alat units)
         1           C   tau(   1) = (   0.0000000   0.0000000   0.0000000  )
         2           C   tau(   2) = (  -0.0500000   0.0500000   0.0500000  )
         3           C   tau(   3) = (  -0.1000000   0.1000000   0.0000000  )
         4           C   tau(   4) = (  -0.1500000   0.1500000   0.0500000  )
         5           C   tau(   5) = (  -0.2000000   0.2000000   0.0000000  )
         6           C   tau(   6) = (  -0.2500000   0.2500000   0.0500000  )
         7           C   tau(   7) = (  -0.3000000   0.3000000   0.0000000  )
         8           C   tau(   8) = (  -0.3500000   0.3500000   0.0500000  )
         9           C   tau(   9) = (  -0.4000000   0.4000000   0.0000000  )
        10           C   tau(  10) = (  -0.4500000   0.4500000   0.0500000  )
        11           C   tau(  11) = (   0.0000000   0.1000000   0.1000000  )
        12           C   tau(  12) = (  -0.0500000   0.1500000   0.1500000  )
        13           C   tau(  13) = (  -0.1000000   0.2000000   0.1000000  )
        14           C   tau(  14) = (  -0.1500000   0.2500000   0.1500000  )
        15           C   tau(  15) = (  -0.2000000   0.3000000   0.1000000  )
        16           C   tau(  16) = (  -0.2500000   0.3500000   0.1500000  )
        17           C   tau(  17) = (  -0.3000000   0.4000000   0.1000000  )
        18           C   tau(  18) = (  -0.3500000   0.4500000   0.1500000  )
        19           C   tau(  19) = (  -0.4000000   0.5000000   0.1000000  )
        20           C   tau(  20) = (  -0.4500000   0.5500000   0.1500000  )
        21           C   tau(  21) = (   0.0000000   0.2000000   0.2000000  )
        22           C   tau(  22) = (  -0.0500000   0.2500000   0.2500000  )
        23           C   tau(  23) = (  -0.1000000   0.3000000   0.2000000  )
        24           C   tau(  24) = (  -0.1500000   0.3500000   0.2500000  )
        25           C   tau(  25) = (  -0.2000000   0.4000000   0.2000000  )
        26           C   tau(  26) = (  -0.2500000   0.4500000   0.2500000  )
        27           C   tau(  27) = (  -0.3000000   0.5000000   0.2000000  )
        28           C   tau(  28) = (  -0.3500000   0.5500000   0.2500000  )
        29           C   tau(  29) = (  -0.4000000   0.6000000   0.2000000  )
        30           C   tau(  30) = (  -0.4500000   0.6500000   0.2500000  )
        31           C   tau(  31) = (   0.0000000   0.3000000   0.3000000  )
        32           C   tau(  32) = (  -0.0500000   0.3500000   0.3500000  )
        33           C   tau(  33) = (  -0.1000000   0.4000000   0.3000000  )
        34           C   tau(  34) = (  -0.1500000   0.4500000   0.3500000  )
        35           C   tau(  35) = (  -0.2000000   0.5000000   0.3000000  )
        36           C   tau(  36) = (  -0.2500000   0.5500000   0.3500000  )
        37           C   tau(  37) = (  -0.3000000   0.6000000   0.3000000  )
        38           C   tau(  38) = (  -0.3500000   0.6500000   0.3500000  )
        39           C   tau(  39) = (  -0.4000000   0.7000000   0.3000000  )
        40           C   tau(  40) = (  -0.4500000   0.7500000   0.3500000  )
        41           C   tau(  41) = (   0.0000000   0.4000000   0.4000000  )
        42           C   tau(  42) = (  -0.0500000   0.4500000   0.4500000  )
        43           C   tau(  43) = (  -0.1000000   0.5000000   0.4000000  )
        44           C   tau(  44) = (  -0.1500000   0.5500000   0.4500000  )
        45           C   tau(  45) = (  -0.2000000   0.6000000   0.4000000  )
        46           C   tau(  46) = (  -0.2500000   0.6500000   0.4500000  )
        47           C   tau(  47) = (  -0.3000000   0.7000000   0.4000000  )
        48           C   tau(  48) = (  -0.3500000   0.7500000   0.4500000  )
        49           C   tau(  49) = (  -0.4000000   0.8000000   0.4000000  )
        50           C   tau(  50) = (  -0.4500000   0.8500000   0.4500000  )
        51           C   tau(  51) = (  -0.1000000   0.0000000   0.1000000  )
        52           C   tau(  52) = (  -0.1500000   0.0500000   0.1500000  )
        53           C   tau(  53) = (  -0.2000000   0.1000000   0.1000000  )
        54           C   tau(  54) = (  -0.2500000   0.1500000   0.1500000  )
        55           C   tau(  55) = (  -0.3000000   0.2000000   0.1000000  )
        56           C   tau(  56) = (  -0.3500000   0.2500000   0.1500000  )
        57           C   tau(  57) = (  -0.4000000   0.3000000   0.1000000  )
        58           C   tau(  58) = (  -0.4500000   0.3500000   0.1500000  )
        59           C   tau(  59) = (  -0.5000000   0.4000000   0.1000000  )
        60           C   tau(  60) = (  -0.5500000   0.4500000   0.1500000  )
        61           C   tau(  61) = (  -0.1000000   0.1000000   0.2000000  )
        62           C   tau(  62) = (  -0.1500000   0.1500000   0.2500000  )
        63           C   tau(  63) = (  -0.2000000   0.2000000   0.2000000  )
        64           C   tau(  64) = (  -0.2500000   0.2500000   0.2500000  )
        65           C   tau(  65) = (  -0.3000000   0.3000000   0.2000000  )
        66           C   tau(  66) = (  -0.3500000   0.3500000   0.2500000  )
        67           C   tau(  67) = (  -0.4000000   0.4000000   0.2000000  )
        68           C   tau(  68) = (  -0.4500000   0.4500000   0.2500000  )
        69           C   tau(  69) = (  -0.5000000   0.5000000   0.2000000  )
        70           C   tau(  70) = (  -0.5500000   0.5500000   0.2500000  )
        71           C   tau(  71) = (  -0.1000000   0.2000000   0.3000000  )
        72           C   tau(  72) = (  -0.1500000   0.2500000   0.3500000  )
        73           C   tau(  73) = (  -0.2000000   0.3000000   0.3000000  )
        74           C   tau(  74) = (  -0.2500000   0.3500000   0.3500000  )
        75           C   tau(  75) = (  -0.3000000   0.4000000   0.3000000  )
        76           C   tau(  76) = (  -0.3500000   0.4500000   0.3500000  )
        77           C   tau(  77) = (  -0.4000000   0.5000000   0.3000000  )
        78           C   tau(  78) = (  -0.4500000   0.5500000   0.3500000  )
        79           C   tau(  79) = (  -0.5000000   0.6000000   0.3000000  )
        80           C   tau(  80) = (  -0.5500000   0.6500000   0.3500000  )
        81           C   tau(  81) = (  -0.1000000   0.3000000   0.4000000  )
        82           C   tau(  82) = (  -0.1500000   0.3500000   0.4500000  )
        83           C   tau(  83) = (  -0.2000000   0.4000000   0.4000000  )
        84           C   tau(  84) = (  -0.2500000   0.4500000   0.4500000  )
        85           C   tau(  85) = (  -0.3000000   0.5000000   0.4000000  )
        86           C   tau(  86) = (  -0.3500000   0.5500000   0.4500000  )
        87           C   tau(  87) = (  -0.4000000   0.6000000   0.4000000  )
        88           C   tau(  88) = (  -0.4500000   0.6500000   0.4500000  )
        89           C   tau(  89) = (  -0.5000000   0.7000000   0.4000000  )
        90           C   tau(  90) = (  -0.5500000   0.7500000   0.4500000  )
        91           C   tau(  91) = (  -0.1000000   0.4000000   0.5000000  )
        92           C   tau(  92) = (  -0.1500000   0.4500000   0.5500000  )
        93           C   tau(  93) = (  -0.2000000   0.5000000   0.5000000  )
        94           C   tau(  94) = (  -0.2500000   0.5500000   0.5500000  )
        95           C   tau(  95) = (  -0.3000000   0.6000000   0.5000000  )
        96           C   tau(  96) = (  -0.3500000   0.6500000   0.5500000  )
        97           C   tau(  97) = (  -0.4000000   0.7000000   0.5000000  )
        98           C   tau(  98) = (  -0.4500000   0.7500000   0.5500000  )
        99           C   tau(  99) = (  -0.5000000   0.8000000   0.5000000  )
       100           C   tau( 100) = (  -0.5500000   0.8500000   0.5500000  )
       101           C   tau( 101) = (  -0.2000000   0.0000000   0.2000000  )
       102           C   tau( 102) = (  -0.2500000   0.0500000   0.2500000  )
       103           C   tau( 103) = (  -0.3000000   0.1000000   0.2000000  )
       104           C   tau( 104) = (  -0.3500000   0.1500000   0.2500000  )
       105           C   tau( 105) = (  -0.4000000   0.2000000   0.2000000  )
       106           C   tau( 106) = (  -0.4500000   0.2500000   0.2500000  )
       107           C   tau( 107) = (  -0.5000000   0.3000000   0.2000000  )
       108           C   tau( 108) = (  -0.5500000   0.3500000   0.2500000  )
       109           C   tau( 109) = (  -0.6000000   0.4000000   0.2000000  )
       110           C   tau( 110) = (  -0.6500000   0.4500000   0.2500000  )
       111           C   tau( 111) = (  -0.2000000   0.1000000   0.3000000  )
       112           C   tau( 112) = (  -0.2500000   0.1500000   0.3500000  )
       113           C   tau( 113) = (  -0.3000000   0.2000000   0.3000000  )
       114           C   tau( 114) = (  -0.3500000   0.2500000   0.3500000  )
       115           C   tau( 115) = (  -0.4000000   0.3000000   0.3000000  )
       116           C   tau( 116) = (  -0.4500000   0.3500000   0.3500000  )
       117           C   tau( 117) = (  -0.5000000   0.4000000   0.3000000  )
       118           C   tau( 118) = (  -0.5500000   0.4500000   0.3500000  )
       119           C   tau( 119) = (  -0.6000000   0.5000000   0.3000000  )
       120           C   tau( 120) = (  -0.6500000   0.5500000   0.3500000  )
       121           C   tau( 121) = (  -0.2000000   0.2000000   0.4000000  )
       122           C   tau( 122) = (  -0.2500000   0.2500000   0.4500000  )
       123           C   tau( 123) = (  -0.3000000   0.3000000   0.4000000  )
       124           C   tau( 124) = (  -0.3500000   0.3500000   0.4500000  )
       125           B   tau( 125) = (  -0.4000000   0.4000000   0.4000000  )
       126           B   tau( 126) = (  -0.4500000   0.4500000   0.4500000  )
       127           C   tau( 127) = (  -0.5000000   0.5000000   0.4000000  )
       128           C   tau( 128) = (  -0.5500000   0.5500000   0.4500000  )
       129           C   tau( 129) = (  -0.6000000   0.6000000   0.4000000  )
       130           C   tau( 130) = (  -0.6500000   0.6500000   0.4500000  )
       131           C   tau( 131) = (  -0.2000000   0.3000000   0.5000000  )
       132           C   tau( 132) = (  -0.2500000   0.3500000   0.5500000  )
       133           C   tau( 133) = (  -0.3000000   0.4000000   0.5000000  )
       134           C   tau( 134) = (  -0.3500000   0.4500000   0.5500000  )
       135           C   tau( 135) = (  -0.4000000   0.5000000   0.5000000  )
       136           C   tau( 136) = (  -0.4500000   0.5500000   0.5500000  )
       137           C   tau( 137) = (  -0.5000000   0.6000000   0.5000000  )
       138           C   tau( 138) = (  -0.5500000   0.6500000   0.5500000  )
       139           C   tau( 139) = (  -0.6000000   0.7000000   0.5000000  )
       140           C   tau( 140) = (  -0.6500000   0.7500000   0.5500000  )
       141           C   tau( 141) = (  -0.2000000   0.4000000   0.6000000  )
       142           C   tau( 142) = (  -0.2500000   0.4500000   0.6500000  )
       143           C   tau( 143) = (  -0.3000000   0.5000000   0.6000000  )
       144           C   tau( 144) = (  -0.3500000   0.5500000   0.6500000  )
       145           C   tau( 145) = (  -0.4000000   0.6000000   0.6000000  )
       146           C   tau( 146) = (  -0.4500000   0.6500000   0.6500000  )
       147           C   tau( 147) = (  -0.5000000   0.7000000   0.6000000  )
       148           C   tau( 148) = (  -0.5500000   0.7500000   0.6500000  )
       149           C   tau( 149) = (  -0.6000000   0.8000000   0.6000000  )
       150           C   tau( 150) = (  -0.6500000   0.8500000   0.6500000  )
       151           C   tau( 151) = (  -0.3000000   0.0000000   0.3000000  )
       152           C   tau( 152) = (  -0.3500000   0.0500000   0.3500000  )
       153           C   tau( 153) = (  -0.4000000   0.1000000   0.3000000  )
       154           C   tau( 154) = (  -0.4500000   0.1500000   0.3500000  )
       155           C   tau( 155) = (  -0.5000000   0.2000000   0.3000000  )
       156           C   tau( 156) = (  -0.5500000   0.2500000   0.3500000  )
       157           C   tau( 157) = (  -0.6000000   0.3000000   0.3000000  )
       158           C   tau( 158) = (  -0.6500000   0.3500000   0.3500000  )
       159           C   tau( 159) = (  -0.7000000   0.4000000   0.3000000  )
       160           C   tau( 160) = (  -0.7500000   0.4500000   0.3500000  )
       161           C   tau( 161) = (  -0.3000000   0.1000000   0.4000000  )
       162           C   tau( 162) = (  -0.3500000   0.1500000   0.4500000  )
       163           C   tau( 163) = (  -0.4000000   0.2000000   0.4000000  )
       164           C   tau( 164) = (  -0.4500000   0.2500000   0.4500000  )
       165           C   tau( 165) = (  -0.5000000   0.3000000   0.4000000  )
       166           C   tau( 166) = (  -0.5500000   0.3500000   0.4500000  )
       167           C   tau( 167) = (  -0.6000000   0.4000000   0.4000000  )
       168           C   tau( 168) = (  -0.6500000   0.4500000   0.4500000  )
       169           C   tau( 169) = (  -0.7000000   0.5000000   0.4000000  )
       170           C   tau( 170) = (  -0.7500000   0.5500000   0.4500000  )
       171           C   tau( 171) = (  -0.3000000   0.2000000   0.5000000  )
       172           C   tau( 172) = (  -0.3500000   0.2500000   0.5500000  )
       173           C   tau( 173) = (  -0.4000000   0.3000000   0.5000000  )
       174           C   tau( 174) = (  -0.4500000   0.3500000   0.5500000  )
       175           C   tau( 175) = (  -0.5000000   0.4000000   0.5000000  )
       176           C   tau( 176) = (  -0.5500000   0.4500000   0.5500000  )
       177           C   tau( 177) = (  -0.6000000   0.5000000   0.5000000  )
       178           C   tau( 178) = (  -0.6500000   0.5500000   0.5500000  )
       179           C   tau( 179) = (  -0.7000000   0.6000000   0.5000000  )
       180           C   tau( 180) = (  -0.7500000   0.6500000   0.5500000  )
       181           C   tau( 181) = (  -0.3000000   0.3000000   0.6000000  )
       182           C   tau( 182) = (  -0.3500000   0.3500000   0.6500000  )
       183           C   tau( 183) = (  -0.4000000   0.4000000   0.6000000  )
       184           C   tau( 184) = (  -0.4500000   0.4500000   0.6500000  )
       185           C   tau( 185) = (  -0.5000000   0.5000000   0.6000000  )
       186           C   tau( 186) = (  -0.5500000   0.5500000   0.6500000  )
       187           C   tau( 187) = (  -0.6000000   0.6000000   0.6000000  )
       188           C   tau( 188) = (  -0.6500000   0.6500000   0.6500000  )
       189           C   tau( 189) = (  -0.7000000   0.7000000   0.6000000  )
       190           C   tau( 190) = (  -0.7500000   0.7500000   0.6500000  )
       191           C   tau( 191) = (  -0.3000000   0.4000000   0.7000000  )
       192           C   tau( 192) = (  -0.3500000   0.4500000   0.7500000  )
       193           C   tau( 193) = (  -0.4000000   0.5000000   0.7000000  )
       194           C   tau( 194) = (  -0.4500000   0.5500000   0.7500000  )
       195           C   tau( 195) = (  -0.5000000   0.6000000   0.7000000  )
       196           C   tau( 196) = (  -0.5500000   0.6500000   0.7500000  )
       197           C   tau( 197) = (  -0.6000000   0.7000000   0.7000000  )
       198           C   tau( 198) = (  -0.6500000   0.7500000   0.7500000  )
       199           C   tau( 199) = (  -0.7000000   0.8000000   0.7000000  )
       200           C   tau( 200) = (  -0.7500000   0.8500000   0.7500000  )
       201           C   tau( 201) = (  -0.4000000   0.0000000   0.4000000  )
       202           C   tau( 202) = (  -0.4500000   0.0500000   0.4500000  )
       203           C   tau( 203) = (  -0.5000000   0.1000000   0.4000000  )
       204           C   tau( 204) = (  -0.5500000   0.1500000   0.4500000  )
       205           C   tau( 205) = (  -0.6000000   0.2000000   0.4000000  )
       206           C   tau( 206) = (  -0.6500000   0.2500000   0.4500000  )
       207           C   tau( 207) = (  -0.7000000   0.3000000   0.4000000  )
       208           C   tau( 208) = (  -0.7500000   0.3500000   0.4500000  )
       209           C   tau( 209) = (  -0.8000000   0.4000000   0.4000000  )
       210           C   tau( 210) = (  -0.8500000   0.4500000   0.4500000  )
       211           C   tau( 211) = (  -0.4000000   0.1000000   0.5000000  )
       212           C   tau( 212) = (  -0.4500000   0.1500000   0.5500000  )
       213           C   tau( 213) = (  -0.5000000   0.2000000   0.5000000  )
       214           C   tau( 214) = (  -0.5500000   0.2500000   0.5500000  )
       215           C   tau( 215) = (  -0.6000000   0.3000000   0.5000000  )
       216           C   tau( 216) = (  -0.6500000   0.3500000   0.5500000  )
       217           C   tau( 217) = (  -0.7000000   0.4000000   0.5000000  )
       218           C   tau( 218) = (  -0.7500000   0.4500000   0.5500000  )
       219           C   tau( 219) = (  -0.8000000   0.5000000   0.5000000  )
       220           C   tau( 220) = (  -0.8500000   0.5500000   0.5500000  )
       221           C   tau( 221) = (  -0.4000000   0.2000000   0.6000000  )
       222           C   tau( 222) = (  -0.4500000   0.2500000   0.6500000  )
       223           C   tau( 223) = (  -0.5000000   0.3000000   0.6000000  )
       224           C   tau( 224) = (  -0.5500000   0.3500000   0.6500000  )
       225           C   tau( 225) = (  -0.6000000   0.4000000   0.6000000  )
       226           C   tau( 226) = (  -0.6500000   0.4500000   0.6500000  )
       227           C   tau( 227) = (  -0.7000000   0.5000000   0.6000000  )
       228           C   tau( 228) = (  -0.7500000   0.5500000   0.6500000  )
       229           C   tau( 229) = (  -0.8000000   0.6000000   0.6000000  )
       230           C   tau( 230) = (  -0.8500000   0.6500000   0.6500000  )
       231           C   tau( 231) = (  -0.4000000   0.3000000   0.7000000  )
       232           C   tau( 232) = (  -0.4500000   0.3500000   0.7500000  )
       233           C   tau( 233) = (  -0.5000000   0.4000000   0.7000000  )
       234           C   tau( 234) = (  -0.5500000   0.4500000   0.7500000  )
       235           C   tau( 235) = (  -0.6000000   0.5000000   0.7000000  )
       236           C   tau( 236) = (  -0.6500000   0.5500000   0.7500000  )
       237           C   tau( 237) = (  -0.7000000   0.6000000   0.7000000  )
       238           C   tau( 238) = (  -0.7500000   0.6500000   0.7500000  )
       239           C   tau( 239) = (  -0.8000000   0.7000000   0.7000000  )
       240           C   tau( 240) = (  -0.8500000   0.7500000   0.7500000  )
       241           C   tau( 241) = (  -0.4000000   0.4000000   0.8000000  )
       242           C   tau( 242) = (  -0.4500000   0.4500000   0.8500000  )
       243           C   tau( 243) = (  -0.5000000   0.5000000   0.8000000  )
       244           C   tau( 244) = (  -0.5500000   0.5500000   0.8500000  )
       245           C   tau( 245) = (  -0.6000000   0.6000000   0.8000000  )
       246           C   tau( 246) = (  -0.6500000   0.6500000   0.8500000  )
       247           C   tau( 247) = (  -0.7000000   0.7000000   0.8000000  )
       248           C   tau( 248) = (  -0.7500000   0.7500000   0.8500000  )
       249           C   tau( 249) = (  -0.8000000   0.8000000   0.8000000  )
       250           C   tau( 250) = (  -0.8500000   0.8500000   0.8500000  )

     number of k points=     1
                       cart. coord. in units 2pi/alat
        k(    1) = (   0.0000000   0.0000000   0.0000000), wk =   2.0000000

     Dense  grid:   450159 G-vectors     FFT dimensions: ( 108, 108, 108)

     Estimated max dynamical RAM per process >      80.69MB

     Estimated total allocated dynamical RAM >    6455.43MB

     Initial potential from superposition of free atoms

     starting charge  996.23812, renormalised to  998.00000
     Starting wfc are random

     total cpu time spent up to now is        3.0 secs

     per-process dynamical memory:    92.5 Mb

     Self-consistent Calculation

     iteration #  1     ecut=    50.00 Ry     beta=0.70
     Davidson diagonalization with overlap
     ethr =  1.00E-02,  avg # of iterations = 11.0

     total cpu time spent up to now is       33.0 secs

     total energy              =   -2834.77638937 Ry
     Harris-Foulkes estimate   =   -2839.64024279 Ry
     estimated scf accuracy    <      15.60385924 Ry

     iteration #  2     ecut=    50.00 Ry     beta=0.70
     Davidson diagonalization with overlap
     ethr =  1.56E-03,  avg # of iterations = 11.0

     total cpu time spent up to now is       48.2 secs

     total energy              =   -2833.94824971 Ry
     Harris-Foulkes estimate   =   -2835.43040202 Ry
     estimated scf accuracy    <       3.65477814 Ry

     iteration #  3     ecut=    50.00 Ry     beta=0.70
     Davidson diagonalization with overlap
     ethr =  3.66E-04,  avg # of iterations =  4.0

     total cpu time spent up to now is       56.4 secs

     total energy              =   -2834.37413730 Ry
     Harris-Foulkes estimate   =   -2834.38333146 Ry
     estimated scf accuracy    <       0.10170862 Ry

     iteration #  4     ecut=    50.00 Ry     beta=0.70
     Davidson diagonalization with overlap
     ethr =  1.02E-05,  avg # of iterations = 16.0

     total cpu time spent up to now is       97.1 secs

     total energy              =   -2834.40523796 Ry
     Harris-Foulkes estimate   =   -2834.40141195 Ry
     estimated scf accuracy    <       0.02566340 Ry

     iteration #  5     ecut=    50.00 Ry     beta=0.70
     Davidson diagonalization with overlap
     ethr =  2.57E-06,  avg # of iterations =  5.0

     total cpu time spent up to now is      105.9 secs

     total energy              =   -2834.40638881 Ry
     Harris-Foulkes estimate   =   -2834.40918949 Ry
     estimated scf accuracy    <       0.02938017 Ry

     iteration #  6     ecut=    50.00 Ry     beta=0.70
     Davidson diagonalization with overlap
     ethr =  2.57E-06,  avg # of iterations =  4.0

     total cpu time spent up to now is      111.7 secs

     total energy              =   -2834.40459014 Ry
     Harris-Foulkes estimate   =   -2834.40696286 Ry
     estimated scf accuracy    <       0.01100352 Ry

     iteration #  7     ecut=    50.00 Ry     beta=0.70
     Davidson diagonalization with overlap
     ethr =  1.10E-06,  avg # of iterations = 10.0

     total cpu time spent up to now is      127.1 secs

     total energy              =   -2834.40596493 Ry
     Harris-Foulkes estimate   =   -2834.40605667 Ry
     estimated scf accuracy    <       0.00091295 Ry

     iteration #  8     ecut=    50.00 Ry     beta=0.70
     Davidson diagonalization with overlap
     ethr =  9.15E-08,  avg # of iterations =  7.0

     total cpu time spent up to now is      139.5 secs

     total energy              =   -2834.40601939 Ry
     Harris-Foulkes estimate   =   -2834.40605382 Ry
     estimated scf accuracy    <       0.00020194 Ry

     iteration #  9     ecut=    50.00 Ry     beta=0.70
     Davidson diagonalization with overlap
     ethr =  2.02E-08,  avg # of iterations = 15.0

     total cpu time spent up to now is      156.4 secs

     total energy              =   -2834.40602872 Ry
     Harris-Foulkes estimate   =   -2834.40603677 Ry
     estimated scf accuracy    <       0.00003203 Ry

     iteration # 10     ecut=    50.00 Ry     beta=0.70
     Davidson diagonalization with overlap
     ethr =  3.21E-09,  avg # of iterations = 12.0

     total cpu time spent up to now is      181.6 secs

     total energy              =   -2834.40603326 Ry
     Harris-Foulkes estimate   =   -2834.40603419 Ry
     estimated scf accuracy    <       0.00000464 Ry

     iteration # 11     ecut=    50.00 Ry     beta=0.70
     Davidson diagonalization with overlap
     ethr =  4.65E-10,  avg # of iterations = 10.0

     total cpu time spent up to now is      198.5 secs

     total energy              =   -2834.40603335 Ry
     Harris-Foulkes estimate   =   -2834.40603374 Ry
     estimated scf accuracy    <       0.00000117 Ry

     iteration # 12     ecut=    50.00 Ry     beta=0.70
     Davidson diagonalization with overlap
     ethr =  1.18E-10,  avg # of iterations =  8.0

     total cpu time spent up to now is      214.6 secs

     total energy              =   -2834.40603349 Ry
     Harris-Foulkes estimate   =   -2834.40603353 Ry
     estimated scf accuracy    <       0.00000014 Ry

     iteration # 13     ecut=    50.00 Ry     beta=0.70
     Davidson diagonalization with overlap
     ethr =  1.44E-11,  avg # of iterations =  8.0

     total cpu time spent up to now is      230.5 secs

     total energy              =   -2834.40603351 Ry
     Harris-Foulkes estimate   =   -2834.40603351 Ry
     estimated scf accuracy    <       0.00000003 Ry

     iteration # 14     ecut=    50.00 Ry     beta=0.70
     Davidson diagonalization with overlap
     ethr =  2.85E-12,  avg # of iterations =  9.0

     total cpu time spent up to now is      244.9 secs

     total energy              =   -2834.40603351 Ry
     Harris-Foulkes estimate   =   -2834.40603351 Ry
     estimated scf accuracy    <       0.00000001 Ry

     iteration # 15     ecut=    50.00 Ry     beta=0.70
     Davidson diagonalization with overlap
     ethr =  1.15E-12,  avg # of iterations = 11.0

     total cpu time spent up to now is      262.7 secs

     total energy              =   -2834.40603351 Ry
     Harris-Foulkes estimate   =   -2834.40603351 Ry
     estimated scf accuracy    <          2.3E-09 Ry

     iteration # 16     ecut=    50.00 Ry     beta=0.70
     Davidson diagonalization with overlap
     ethr =  2.33E-13,  avg # of iterations =  7.0

     total cpu time spent up to now is      277.1 secs

     total energy              =   -2834.40603351 Ry
     Harris-Foulkes estimate   =   -2834.40603351 Ry
     estimated scf accuracy    <          2.5E-10 Ry

     iteration # 17     ecut=    50.00 Ry     beta=0.70
     Davidson diagonalization with overlap
     ethr =  1.00E-13,  avg # of iterations =  8.0

     total cpu time spent up to now is      287.8 secs

     End of self-consistent calculation

          k = 0.0000 0.0000 0.0000 ( 56233 PWs)   bands (ev):

    -8.0775  -7.0318  -7.0064  -6.9983  -6.9983  -6.9620  -6.9620  -6.9519
    -6.8702  -6.6126  -6.6126  -6.5876  -6.5653  -6.5653  -6.2998  -5.1670
    -5.1670  -5.1641  -5.1641  -5.1593  -5.1550  -5.1355  -5.1355  -5.1122
    -5.1122  -5.0886  -4.9554  -4.1290  -4.1253  -4.1253  -4.1231  -4.1231
    -4.1202  -4.1002  -4.1002  -4.0935  -4.0896  -4.0896  -4.0854  -4.0826
    -4.0826  -4.0804  -4.0680  -4.0604  -4.0604  -4.0068  -4.0068  -3.9710
    -3.9710  -3.9283  -3.9005  -3.7666  -3.7594  -3.7142  -3.7142  -3.7076
    -3.7076  -3.5839  -3.1820  -2.2825  -2.2825  -2.2721  -2.2721  -2.2585
    -2.2187  -1.6925  -1.6915  -1.6744  -1.6736  -1.6736  -1.6690  -1.6690
    -1.6565  -1.6565  -1.6562  -1.6562  -1.6320  -1.6308  -1.6065  -1.6065
    -1.5983  -1.5983  -1.5842  -1.5842  -1.5662  -1.4993  -1.4993  -1.4329
    -1.3722  -1.1033  -1.1013  -1.1013  -1.0990  -1.0934  -1.0934  -1.0896
    -1.0787  -1.0674  -1.0674  -1.0609  -1.0609  -1.0530  -1.0530  -1.0498
    -1.0498  -1.0278  -0.9994  -0.9531  -0.9531  -0.9348  -0.9348  -0.5651
    -0.0294   0.7854   0.7918   0.7918   0.7982   0.7982   0.8109   0.8300
     0.8300   0.8349   0.8349   0.9247   1.0193   1.2300   1.2362   1.2362
     1.2411   1.2411   1.2417   1.2453   1.2453   1.2475   1.2475   1.2482
     1.2501   1.2748   1.2748   1.2812   1.2901   1.2901   1.3067   1.3226
     1.3226   1.3407   1.3697   1.3697   1.3736   1.4034   1.4155   1.4155
     1.4195   1.4195   1.4343   1.4853   1.4853   1.5496   1.5496   1.7820
     1.8947   2.0744   2.0785   2.0785   2.1222   2.1651   2.1651   2.2582
     2.4145   3.3181   3.3187   3.3187   3.3236   3.3236   3.3240   3.3325
     3.3399   3.3474   3.3474   3.3539   3.3539   3.3878   3.3878   3.3899
     3.3899   3.4138   3.4360   3.4728   3.4728   3.4869   3.4869   3.7783
     3.8074   4.1277   4.1277   4.1289   4.1289   4.2597   4.2917   4.6777
     4.6777   4.6779   4.6787   4.6787   4.6813   4.6815   4.6824   4.6824
     4.6865   4.6865   4.6894   4.7091   4.7161   4.7161   4.7207   4.7207
     4.7238   4.7238   4.7276   4.7316   4.7316   4.7405   4.7474   4.7474
     4.7496   4.7543   4.7543   4.7577   4.7889   4.8229   4.8229   4.8354
     4.8354   5.0105   5.1005   5.1391   5.1391   5.1413   5.1501   5.1501
     5.1645   5.1647   5.1647   5.1735   5.1735   5.1745   5.1745   5.2054
     5.2054   5.2084   5.2114   5.2114   5.2817   5.2817   5.3941   5.4297
     5.4297   5.4895   5.6372   6.5668   6.5668   6.5683   6.5683   6.5805
     6.5810   6.6101   6.6101   6.6209   6.6209   6.6778   6.8025   7.0806
     7.0818   7.0818   7.0819   7.0825   7.0825   7.0889   7.0889   7.0908
     7.0941   7.0941   7.0973   7.1024   7.1024   7.1046   7.1046   7.1133
     7.1202   7.1240   7.1240   7.1312   7.1312   7.1385   7.1396   7.1470
     7.1617   7.1700   7.1700   7.1719   7.1773   7.1773   7.1922   7.1922
     7.2054   7.2146   7.2146   7.2192   7.2192   7.2406   7.2406   7.2491
     7.2790   7.3323   7.3323   7.3334   7.3334   7.3804   7.5077   7.5194
     7.5282   7.5282   7.5353   7.5353   7.5432   7.5432   7.5470   7.5539
     7.5591   7.5591   7.5685   7.5685   7.5692   7.5851   7.5851   7.5980
     7.6368   7.6368   7.6628   7.6628   7.6669   7.6890   7.7648   7.8307
     7.8307   7.8350   7.8350   7.8370   7.8388   7.9202   7.9605   7.9605
     8.1116   8.1116   8.1213   8.6788   8.6905   8.6996   8.6996   8.7046
     8.7046   8.7108   8.7208   8.8289   8.8331   8.8331   8.8349   8.8349
     8.8430   8.8541   8.8541   8.8561   8.8655   8.8661   8.8661   8.8679
     8.8679   8.8692   8.8923   8.8923   8.9215   8.9749   8.9749   8.9802
     8.9802   9.1247   9.1248   9.1253   9.1286   9.1286   9.1302   9.1302
     9.1408   9.1425   9.1437   9.1437   9.1509   9.1509   9.1678   9.1678
     9.1691   9.1725   9.1725   9.1901   9.1911   9.2943   9.2943   9.3466
     9.3466   9.3882   9.3925   9.6637   9.6753   9.6781   9.6781   9.6791
     9.6928   9.6928   9.7006   9.7006   9.7068   9.7068   9.7144   9.7471
     9.7624   9.7624   9.7737   9.7737   9.7941   9.8162   9.9627   9.9627
    10.0350  10.0351  10.0962  10.3381  10.3401  10.3401  10.3479  10.3479
    10.3547  10.3866  10.4099  10.4099  10.4684  10.5110  10.5110  10.5593
    10.5593  10.6175  10.6175  10.6678  10.7985  10.9005  10.9005  10.9224
    10.9224  10.9266  10.9298  10.9327  10.9327  11.0229  11.0229  11.0418
    11.1804  11.1804  11.1914  11.1914  11.2810  11.5917  11.5976  11.5976
    11.6205  11.6252  11.6301  11.6301  11.7662  11.7662  11.7937  11.7937
    11.9252  12.2569  12.2569  12.2636  12.2636  12.2719  12.2789  12.2921
    12.2921  12.3087  12.3087  12.3106  12.4350  12.4350  12.8114  12.8114
    13.1928  13.8012  13.8012  13.9767  17.8542  17.8542  17.8557  17.8557
    17.8716  17.8899  18.4139  18.4139  18.4320  18.4385  18.4385  18.4623
    19.0283  19.0286  19.0286  19.0352  19.0352  19.0391  19.0612  19.0612
    19.0732  19.0732  19.1054  19.1166  19.2999  19.3003  19.3003  19.7687
    19.7691  19.7691  19.7726  19.7726  19.7754  19.7957  19.7968  19.7968
    19.7986  19.7986  19.8000  19.8038  19.8061  19.8061  19.8092  19.8092
    19.8142  19.8703  19.8703  19.8904  19.8988  19.8988  19.9083  19.9531
    19.9531  19.9651  19.9651  20.0293  20.1299  20.9206  20.9206  20.9271
    20.9271  20.9278  20.9378  20.9378  20.9411  20.9411  20.9489  20.9521
    20.9530  20.9712  20.9966  20.9966  21.0023  21.0023  21.0039  21.0039
    21.0142  21.0142  21.0142  21.0200  21.0200  21.0269  21.0271  21.0397
    21.0397  21.0446  21.0495  21.0495  21.0497  21.0497  21.0956  21.1026
    21.1026  21.1055  21.1821  21.1845  21.1845  21.5243  21.5280  21.5280

     highest occupied, lowest unoccupied level (ev):    13.8012   13.9767

!    total energy              =   -2834.40603351 Ry
     Harris-Foulkes estimate   =   -2834.40603351 Ry
     estimated scf accuracy    <          5.6E-11 Ry

     The total energy is the sum of the following terms:

     one-electron contribution =    1017.90483455 Ry
     hartree contribution      =     239.71074883 Ry
     xc contribution           =    -890.66923043 Ry
     ewald contribution        =   -3201.35238646 Ry

     convergence has been achieved in  17 iterations

     Forces acting on atoms (cartesian axes, Ry/au):

     atom    1 type  1   force =     0.00190372   -0.00190372   -0.00190372
     atom    2 type  1   force =    -0.00235152    0.00235152    0.00235153
     atom    3 type  1   force =     0.00250509   -0.00250509   -0.00273113
     atom    4 type  1   force =    -0.00264475    0.00264474    0.00269647
     atom    5 type  1   force =     0.00220882   -0.00220880   -0.00468837
     atom    6 type  1   force =    -0.00212484    0.00212485    0.00239623
     atom    7 type  1   force =     0.00178077   -0.00178079   -0.00215062
     atom    8 type  1   force =    -0.00142597    0.00142596    0.00175632
     atom    9 type  1   force =     0.00157586   -0.00157584   -0.00175650
     atom   10 type  1   force =    -0.00186044    0.00186044    0.00183823
     atom   11 type  1   force =     0.00273112   -0.00250508   -0.00250509
     atom   12 type  1   force =    -0.00269647    0.00264474    0.00264474
     atom   13 type  1   force =     0.00316702   -0.00343198   -0.00316701
     atom   14 type  1   force =    -0.00274279    0.00321701    0.00274280
     atom   15 type  1   force =     0.00286674   -0.00323992   -0.00292661
     atom   16 type  1   force =    -0.00305355    0.00364894    0.00366759
     atom   17 type  1   force =     0.00171342   -0.00143152   -0.00237736
     atom   18 type  1   force =    -0.00198922    0.00157061    0.00277010
     atom   19 type  1   force =     0.00182056   -0.00159176   -0.00195918
     atom   20 type  1   force =    -0.00270708    0.00213182    0.00262637
     atom   21 type  1   force =     0.00468838   -0.00220881   -0.00220881
     atom   22 type  1   force =    -0.00239622    0.00212484    0.00212484
     atom   23 type  1   force =     0.00292662   -0.00323990   -0.00286675
     atom   24 type  1   force =    -0.00366758    0.00364895    0.00305355
     atom   25 type  1   force =     0.00540009   -0.00812886   -0.00540010
     atom   26 type  1   force =    -0.00515629    0.00737255    0.00515628
     atom   27 type  1   force =     0.00299887   -0.00332935   -0.00219806
     atom   28 type  1   force =    -0.00919607    0.00636433    0.00081634
     atom   29 type  1   force =     0.00518293   -0.00148238   -0.00324387
     atom   30 type  1   force =    -0.00527859    0.00340831    0.00143475
     atom   31 type  1   force =     0.00215064   -0.00178078   -0.00178077
     atom   32 type  1   force =    -0.00175629    0.00142596    0.00142597
     atom   33 type  1   force =     0.00237735   -0.00143151   -0.00171341
     atom   34 type  1   force =    -0.00277010    0.00157063    0.00198922
     atom   35 type  1   force =     0.00219806   -0.00332937   -0.00299886
     atom   36 type  1   force =    -0.00081634    0.00636433    0.00919607
     atom   37 type  1   force =     0.00200132   -0.00459097   -0.00200132
     atom   38 type  1   force =    -0.00284390    0.00374988    0.00284393
     atom   39 type  1   force =     0.00276707   -0.00268192   -0.00214210
     atom   40 type  1   force =    -0.00183781    0.00198638    0.00145058
     atom   41 type  1   force =     0.00175652   -0.00157586   -0.00157584
     atom   42 type  1   force =    -0.00183823    0.00186043    0.00186045
     atom   43 type  1   force =     0.00195921   -0.00159174   -0.00182057
     atom   44 type  1   force =    -0.00262638    0.00213183    0.00270708
     atom   45 type  1   force =     0.00324388   -0.00148237   -0.00518294
     atom   46 type  1   force =    -0.00143476    0.00340831    0.00527861
     atom   47 type  1   force =     0.00214210   -0.00268191   -0.00276707
     atom   48 type  1   force =    -0.00145058    0.00198637    0.00183780
     atom   49 type  1   force =     0.00173199   -0.00194303   -0.00173200
     atom   50 type  1   force =    -0.00155470    0.00181783    0.00155471
     atom   51 type  1   force =     0.00250508   -0.00273112   -0.00250510
     atom   52 type  1   force =    -0.00264474    0.00269646    0.00264475
     atom   53 type  1   force =     0.00343199   -0.00316701   -0.00316702
     atom   54 type  1   force =    -0.00321699    0.00274278    0.00274278
     atom   55 type  1   force =     0.00323991   -0.00286675   -0.00292662
     atom   56 type  1   force =    -0.00364894    0.00305355    0.00366761
     atom   57 type  1   force =     0.00143150   -0.00171340   -0.00237736
     atom   58 type  1   force =    -0.00157059    0.00198921    0.00277010
     atom   59 type  1   force =     0.00159175   -0.00182056   -0.00195920
     atom   60 type  1   force =    -0.00213183    0.00270707    0.00262637
     atom   61 type  1   force =     0.00316704   -0.00316701   -0.00343198
     atom   62 type  1   force =    -0.00274281    0.00274280    0.00321702
     atom   63 type  1   force =     0.00381961   -0.00381960   -0.00381961
     atom   64 type  1   force =    -0.00518304    0.00518304    0.00518305
     atom   65 type  1   force =     0.00512310   -0.00512311   -0.00548580
     atom   66 type  1   force =    -0.00644599    0.00644599    0.01115115
     atom   67 type  1   force =     0.00172611   -0.00172609   -0.00317210
     atom   68 type  1   force =    -0.00389455    0.00389455    0.00824478
     atom   69 type  1   force =     0.00283498   -0.00283497   -0.00364162
     atom   70 type  1   force =    -0.00181708    0.00181708    0.00465938
     atom   71 type  1   force =     0.00292662   -0.00286675   -0.00323990
     atom   72 type  1   force =    -0.00366759    0.00305356    0.00364895
     atom   73 type  1   force =     0.00548578   -0.00512310   -0.00512309
     atom   74 type  1   force =    -0.01115116    0.00644598    0.00644598
     atom   75 type  1   force =     0.01102942   -0.01473383   -0.01102941
     atom   76 type  1   force =     0.00494817    0.07157867   -0.00494816
     atom   77 type  1   force =     0.01796488   -0.00455816   -0.00937591
     atom   78 type  1   force =    -0.01810313    0.00931839    0.00462953
     atom   79 type  1   force =     0.00933792   -0.00095204   -0.00645344
     atom   80 type  1   force =    -0.00279406    0.00242564    0.00328231
     atom   81 type  1   force =     0.00237736   -0.00171342   -0.00143151
     atom   82 type  1   force =    -0.00277009    0.00198923    0.00157062
     atom   83 type  1   force =     0.00317211   -0.00172610   -0.00172610
     atom   84 type  1   force =    -0.00824480    0.00389455    0.00389455
     atom   85 type  1   force =     0.00937591   -0.00455814   -0.01796490
     atom   86 type  1   force =    -0.00462954    0.00931839    0.01810313
     atom   87 type  1   force =     0.00371991   -0.00823670   -0.00371992
     atom   88 type  1   force =    -0.00178052    0.00312315    0.00178053
     atom   89 type  1   force =     0.00204632   -0.00267196   -0.00141233
     atom   90 type  1   force =    -0.00151774    0.00232240    0.00166090
     atom   91 type  1   force =     0.00195919   -0.00182055   -0.00159174
     atom   92 type  1   force =    -0.00262637    0.00270708    0.00213183
     atom   93 type  1   force =     0.00364162   -0.00283499   -0.00283499
     atom   94 type  1   force =    -0.00465937    0.00181711    0.00181710
     atom   95 type  1   force =     0.00645344   -0.00095206   -0.00933794
     atom   96 type  1   force =    -0.00328231    0.00242564    0.00279407
     atom   97 type  1   force =     0.00141232   -0.00267195   -0.00204633
     atom   98 type  1   force =    -0.00166092    0.00232240    0.00151774
     atom   99 type  1   force =     0.00147781   -0.00189499   -0.00147781
     atom  100 type  1   force =    -0.00159285    0.00220669    0.00159284
     atom  101 type  1   force =     0.00220881   -0.00468838   -0.00220881
     atom  102 type  1   force =    -0.00212485    0.00239622    0.00212485
     atom  103 type  1   force =     0.00323991   -0.00292661   -0.00286674
     atom  104 type  1   force =    -0.00364893    0.00366759    0.00305354
     atom  105 type  1   force =     0.00812884   -0.00540009   -0.00540010
     atom  106 type  1   force =    -0.00737256    0.00515630    0.00515629
     atom  107 type  1   force =     0.00332937   -0.00299886   -0.00219804
     atom  108 type  1   force =    -0.00636434    0.00919606    0.00081633
     atom  109 type  1   force =     0.00148239   -0.00518294   -0.00324386
     atom  110 type  1   force =    -0.00340830    0.00527859    0.00143477
     atom  111 type  1   force =     0.00286673   -0.00292661   -0.00323991
     atom  112 type  1   force =    -0.00305354    0.00366760    0.00364894
     atom  113 type  1   force =     0.00512310   -0.00548578   -0.00512310
     atom  114 type  1   force =    -0.00644599    0.01115115    0.00644599
     atom  115 type  1   force =     0.01473385   -0.01102942   -0.01102941
     atom  116 type  1   force =    -0.07157869   -0.00494816   -0.00494817
     atom  117 type  1   force =     0.00455817   -0.01796489   -0.00937591
     atom  118 type  1   force =    -0.00931840    0.01810313    0.00462952
     atom  119 type  1   force =     0.00095204   -0.00933791   -0.00645343
     atom  120 type  1   force =    -0.00242564    0.00279406    0.00328231
     atom  121 type  1   force =     0.00540011   -0.00540009   -0.00812884
     atom  122 type  1   force =    -0.00515631    0.00515629    0.00737255
     atom  123 type  1   force =     0.01102943   -0.01102941   -0.01473383
     atom  124 type  1   force =     0.00494818   -0.00494816    0.07157869
     atom  125 type  2   force =     0.12356465   -0.12356463   -0.12356464
     atom  126 type  2   force =    -0.12356369    0.12356368    0.12356368
     atom  127 type  1   force =    -0.00491918    0.00491917   -0.07153374
     atom  128 type  1   force =    -0.01094138    0.01094136    0.01476925
     atom  129 type  1   force =     0.00515500   -0.00515499   -0.00725980
     atom  130 type  1   force =    -0.00545948    0.00545949    0.00809962
     atom  131 type  1   force =     0.00219804   -0.00299886   -0.00332935
     atom  132 type  1   force =    -0.00081633    0.00919608    0.00636433
     atom  133 type  1   force =     0.00937591   -0.01796489   -0.00455815
     atom  134 type  1   force =    -0.00462953    0.01810312    0.00931838
     atom  135 type  1   force =     0.07153377    0.00491917    0.00491918
     atom  136 type  1   force =    -0.01476926    0.01094138    0.01094137
     atom  137 type  1   force =     0.00641748   -0.01112156   -0.00641749
     atom  138 type  1   force =    -0.00504275    0.00549638    0.00504274
     atom  139 type  1   force =     0.00318988   -0.00365106   -0.00361461
     atom  140 type  1   force =    -0.00301454    0.00297997    0.00318199
     atom  141 type  1   force =     0.00324387   -0.00518294   -0.00148238
     atom  142 type  1   force =    -0.00143477    0.00527861    0.00340831
     atom  143 type  1   force =     0.00645345   -0.00933792   -0.00095205
     atom  144 type  1   force =    -0.00328230    0.00279408    0.00242565
     atom  145 type  1   force =     0.00725979   -0.00515499   -0.00515500
     atom  146 type  1   force =    -0.00809961    0.00545949    0.00545948
     atom  147 type  1   force =     0.00361461   -0.00365105   -0.00318988
     atom  148 type  1   force =    -0.00318198    0.00297998    0.00301454
     atom  149 type  1   force =     0.00217469   -0.00254021   -0.00217472
     atom  150 type  1   force =    -0.00238351    0.00469188    0.00238350
     atom  151 type  1   force =     0.00178079   -0.00215063   -0.00178078
     atom  152 type  1   force =    -0.00142596    0.00175631    0.00142598
     atom  153 type  1   force =     0.00143151   -0.00237736   -0.00171342
     atom  154 type  1   force =    -0.00157061    0.00277009    0.00198923
     atom  155 type  1   force =     0.00332934   -0.00219806   -0.00299886
     atom  156 type  1   force =    -0.00636436    0.00081633    0.00919606
     atom  157 type  1   force =     0.00459096   -0.00200131   -0.00200133
     atom  158 type  1   force =    -0.00374987    0.00284391    0.00284390
     atom  159 type  1   force =     0.00268192   -0.00276707   -0.00214211
     atom  160 type  1   force =    -0.00198638    0.00183779    0.00145057
     atom  161 type  1   force =     0.00171341   -0.00237736   -0.00143153
     atom  162 type  1   force =    -0.00198922    0.00277010    0.00157060
     atom  163 type  1   force =     0.00172611   -0.00317211   -0.00172611
     atom  164 type  1   force =    -0.00389455    0.00824478    0.00389456
     atom  165 type  1   force =     0.00455816   -0.00937592   -0.01796489
     atom  166 type  1   force =    -0.00931840    0.00462952    0.01810315
     atom  167 type  1   force =     0.00823670   -0.00371991   -0.00371991
     atom  168 type  1   force =    -0.00312317    0.00178052    0.00178053
     atom  169 type  1   force =     0.00267196   -0.00204633   -0.00141233
     atom  170 type  1   force =    -0.00232240    0.00151775    0.00166090
     atom  171 type  1   force =     0.00299885   -0.00219806   -0.00332935
     atom  172 type  1   force =    -0.00919608    0.00081633    0.00636434
     atom  173 type  1   force =     0.01796490   -0.00937592   -0.00455815
     atom  174 type  1   force =    -0.01810314    0.00462952    0.00931840
     atom  175 type  1   force =    -0.00491918   -0.07153376    0.00491918
     atom  176 type  1   force =    -0.01094138    0.01476924    0.01094137
     atom  177 type  1   force =     0.01112157   -0.00641750   -0.00641750
     atom  178 type  1   force =    -0.00549638    0.00504275    0.00504274
     atom  179 type  1   force =     0.00365106   -0.00318988   -0.00361461
     atom  180 type  1   force =    -0.00297996    0.00301454    0.00318199
     atom  181 type  1   force =     0.00200133   -0.00200133   -0.00459097
     atom  182 type  1   force =    -0.00284392    0.00284391    0.00374986
     atom  183 type  1   force =     0.00371990   -0.00371992   -0.00823670
     atom  184 type  1   force =    -0.00178054    0.00178053    0.00312316
     atom  185 type  1   force =     0.00641750   -0.00641750   -0.01112156
     atom  186 type  1   force =    -0.00504275    0.00504273    0.00549639
     atom  187 type  1   force =     0.00517337   -0.00517337   -0.00517336
     atom  188 type  1   force =    -0.00388695    0.00388694    0.00388694
     atom  189 type  1   force =     0.00277048   -0.00277049   -0.00315175
     atom  190 type  1   force =    -0.00311563    0.00311563    0.00341449
     atom  191 type  1   force =     0.00214209   -0.00276706   -0.00268192
     atom  192 type  1   force =    -0.00145058    0.00183779    0.00198638
     atom  193 type  1   force =     0.00141231   -0.00204635   -0.00267194
     atom  194 type  1   force =    -0.00166092    0.00151773    0.00232239
     atom  195 type  1   force =     0.00361460   -0.00318989   -0.00365104
     atom  196 type  1   force =    -0.00318201    0.00301455    0.00297998
     atom  197 type  1   force =     0.00315176   -0.00277050   -0.00277048
     atom  198 type  1   force =    -0.00341450    0.00311564    0.00311564
     atom  199 type  1   force =     0.00251000   -0.00280032   -0.00250998
     atom  200 type  1   force =    -0.00253501    0.00277210    0.00253502
     atom  201 type  1   force =     0.00157586   -0.00175652   -0.00157584
     atom  202 type  1   force =    -0.00186044    0.00183823    0.00186044
     atom  203 type  1   force =     0.00159176   -0.00195920   -0.00182056
     atom  204 type  1   force =    -0.00213184    0.00262636    0.00270707
     atom  205 type  1   force =     0.00148237   -0.00324387   -0.00518296
     atom  206 type  1   force =    -0.00340830    0.00143477    0.00527860
     atom  207 type  1   force =     0.00268191   -0.00214210   -0.00276708
     atom  208 type  1   force =    -0.00198641    0.00145059    0.00183780
     atom  209 type  1   force =     0.00194303   -0.00173200   -0.00173199
     atom  210 type  1   force =    -0.00181782    0.00155470    0.00155470
     atom  211 type  1   force =     0.00182056   -0.00195917   -0.00159174
     atom  212 type  1   force =    -0.00270706    0.00262636    0.00213182
     atom  213 type  1   force =     0.00283499   -0.00364163   -0.00283499
     atom  214 type  1   force =    -0.00181710    0.00465937    0.00181710
     atom  215 type  1   force =     0.00095204   -0.00645343   -0.00933794
     atom  216 type  1   force =    -0.00242565    0.00328232    0.00279405
     atom  217 type  1   force =     0.00267197   -0.00141231   -0.00204634
     atom  218 type  1   force =    -0.00232240    0.00166090    0.00151774
     atom  219 type  1   force =     0.00189499   -0.00147781   -0.00147782
     atom  220 type  1   force =    -0.00220671    0.00159284    0.00159284
     atom  221 type  1   force =     0.00518295   -0.00324388   -0.00148236
     atom  222 type  1   force =    -0.00527860    0.00143478    0.00340831
     atom  223 type  1   force =     0.00933793   -0.00645345   -0.00095205
     atom  224 type  1   force =    -0.00279406    0.00328230    0.00242564
     atom  225 type  1   force =     0.00515499   -0.00725980   -0.00515499
     atom  226 type  1   force =    -0.00545949    0.00809962    0.00545947
     atom  227 type  1   force =     0.00365105   -0.00361462   -0.00318992
     atom  228 type  1   force =    -0.00297998    0.00318199    0.00301455
     atom  229 type  1   force =     0.00254023   -0.00217469   -0.00217469
     atom  230 type  1   force =    -0.00469186    0.00238352    0.00238350
     atom  231 type  1   force =     0.00276707   -0.00214210   -0.00268191
     atom  232 type  1   force =    -0.00183780    0.00145059    0.00198638
     atom  233 type  1   force =     0.00204634   -0.00141233   -0.00267196
     atom  234 type  1   force =    -0.00151774    0.00166093    0.00232238
     atom  235 type  1   force =     0.00318990   -0.00361459   -0.00365104
     atom  236 type  1   force =    -0.00301455    0.00318200    0.00297997
     atom  237 type  1   force =     0.00277048   -0.00315176   -0.00277049
     atom  238 type  1   force =    -0.00311565    0.00341449    0.00311563
     atom  239 type  1   force =     0.00280032   -0.00251000   -0.00250998
     atom  240 type  1   force =    -0.00277209    0.00253501    0.00253502
     atom  241 type  1   force =     0.00173198   -0.00173198   -0.00194303
     atom  242 type  1   force =    -0.00155470    0.00155471    0.00181781
     atom  243 type  1   force =     0.00147780   -0.00147778   -0.00189503
     atom  244 type  1   force =    -0.00159287    0.00159284    0.00220671
     atom  245 type  1   force =     0.00217468   -0.00217468   -0.00254022
     atom  246 type  1   force =    -0.00238350    0.00238350    0.00469186
     atom  247 type  1   force =     0.00251000   -0.00250999   -0.00280031
     atom  248 type  1   force =    -0.00253502    0.00253502    0.00277210
     atom  249 type  1   force =     0.00251299   -0.00251298   -0.00251299
     atom  250 type  1   force =    -0.00191004    0.00191004    0.00191004

     Total force =     0.373963     Total SCF correction =     0.000026


     Computing stress (Cartesian axis) and pressure

          total   stress  (Ry/bohr**3)                   (kbar)     P=  -50.72
  -0.00034479   0.00001068   0.00001068        -50.72      1.57      1.57
   0.00001068  -0.00034479  -0.00001068          1.57    -50.72     -1.57
   0.00001068  -0.00001068  -0.00034479          1.57     -1.57    -50.72


     BFGS Geometry Optimization

     number of scf cycles    =   1
     number of bfgs steps    =   0

     enthalpy new            =   -2834.4060335088 Ry

     new trust radius        =       0.2140202338 bohr
     new conv_thr            =            1.0E-10 Ry

     new unit-cell volume =   9171.93640 a.u.^3 (  1359.14073 Ang^3 )
     density =      3.66570 g/cm^3

CELL_PARAMETERS (alat= 33.51712756)
  -0.495556555  -0.000267106   0.495556555
   0.000267106   0.495556555   0.495556555
  -0.495556555   0.495556555  -0.000267106

ATOMIC_POSITIONS (crystal)
C       -0.000056798  -0.000056798  -0.000056799
C        0.050070159   0.050070159   0.050070159
C       -0.000081485  -0.000081484   0.199932003
C        0.050080451   0.050080450   0.250077364
C       -0.000139880  -0.000139880   0.400008078
C        0.050071492   0.050071493   0.450055299
C       -0.000064164  -0.000064165   0.599957904
C        0.050052401   0.050052400   0.650032688
C       -0.000052407  -0.000052406   0.799958374
C        0.050054844   0.050054844   0.850056170
C       -0.000081485   0.199932004  -0.000081484
C        0.050080451   0.250077364   0.050080450
C       -0.000086584   0.199897605   0.199897605
C        0.050067684   0.250095981   0.250095981
C       -0.000076183   0.199901549   0.399905122
C        0.050091661   0.250127188   0.450090548
C       -0.000079340   0.199937481   0.599977099
C        0.050095137   0.250070158   0.650023562
C       -0.000065280   0.199948373   0.799956645
C        0.050095522   0.250061196   0.850066012
C       -0.000139880   0.400008078  -0.000139880
C        0.050071492   0.450055299   0.050071493
C       -0.000076184   0.399905122   0.199901550
C        0.050091660   0.450090548   0.250127188
C       -0.000079701   0.399757471   0.399757472
C        0.050087717   0.450219963   0.450219964
C       -0.000055720   0.399924560   0.599876775
C        0.050108842   0.449939870   0.650439896
C       -0.000207190   0.400013625   0.799897920
C        0.050098607   0.449987006   0.850216371
C       -0.000064165   0.599957905  -0.000064166
C        0.050052400   0.650032689   0.050052400
C       -0.000079340   0.599977099   0.199937481
C        0.050095136   0.650023563   0.250070158
C       -0.000055719   0.599876774   0.399924559
C        0.050108842   0.650439896   0.449939870
C        0.000017553   0.599863026   0.599863026
C        0.050057820   0.650111880   0.650111879
C       -0.000066451   0.599938630   0.799901337
C        0.050038846   0.650047711   0.850070818
C       -0.000052406   0.799958374  -0.000052407
C        0.050054845   0.850056170   0.050054844
C       -0.000065281   0.799956646   0.199948373
C        0.050095522   0.850066012   0.250061196
C       -0.000207191   0.799897920   0.400013626
C        0.050098608   0.850216372   0.449987006
C       -0.000066451   0.799901337   0.599938630
C        0.050038846   0.850070817   0.650047712
C       -0.000045379   0.799942028   0.799942029
C        0.050038535   0.850054236   0.850054236
C        0.199932003  -0.000081485  -0.000081484
C        0.250077364   0.050080450   0.050080450
C        0.199897605  -0.000086584   0.199897605
C        0.250095980   0.050067684   0.250095980
C        0.199901549  -0.000076184   0.399905122
C        0.250127189   0.050091661   0.450090547
C        0.199937481  -0.000079340   0.599977100
C        0.250070158   0.050095137   0.650023561
C        0.199948373  -0.000065281   0.799956646
C        0.250061196   0.050095522   0.850066012
C        0.199897604   0.199897606  -0.000086585
C        0.250095982   0.250095981   0.050067684
C        0.199886040   0.199886040   0.199886040
C        0.250154639   0.250154639   0.250154638
C        0.199836329   0.199836328   0.399857971
C        0.250332700   0.250332700   0.450051938
C        0.199905358   0.199905360   0.599991643
C        0.250245987   0.250245987   0.649986404
C        0.199891350   0.199891351   0.799939484
C        0.250139015   0.250139015   0.849969412
C        0.199901550   0.399905122  -0.000076184
C        0.250127188   0.450090549   0.050091661
C        0.199836329   0.399857971   0.199836329
C        0.250332700   0.450051938   0.250332700
C        0.199781455   0.399560409   0.399560409
C        0.247569153   0.452135585   0.452135585
C        0.199320269   0.400120261   0.599607749
C        0.250400221   0.449876027   0.650680010
C        0.199557261   0.400057655   0.799885535
C        0.250108921   0.450086937   0.850057803
C        0.199937481   0.599977099  -0.000079341
C        0.250070158   0.650023563   0.050095137
C        0.199905358   0.599991643   0.199905359
C        0.250245988   0.649986404   0.250245988
C        0.199320268   0.599607749   0.400120262
C        0.250400222   0.650680010   0.449876027
C        0.200023775   0.599754254   0.599754254
C        0.250013065   0.650093181   0.650093181
C        0.199976529   0.599939196   0.799901365
C        0.250025547   0.650073561   0.850065019
C        0.199948373   0.799956646  -0.000065280
C        0.250061196   0.850066012   0.050095522
C        0.199891350   0.799939483   0.199891350
C        0.250139014   0.849969414   0.250139015
C        0.199557262   0.799885534   0.400057655
C        0.250108922   0.850057803   0.450086937
C        0.199976528   0.799901365   0.599939197
C        0.250025547   0.850065018   0.650073562
C        0.199968356   0.799943462   0.799943462
C        0.250029209   0.850065837   0.850065838
C        0.400008079  -0.000139880  -0.000139880
C        0.450055299   0.050071492   0.050071492
C        0.399905122  -0.000076183   0.199901549
C        0.450090547   0.050091661   0.250127188
C        0.399757472  -0.000079701   0.399757472
C        0.450219964   0.050087717   0.450219964
C        0.399924559  -0.000055719   0.599876774
C        0.449939870   0.050108841   0.650439897
C        0.400013626  -0.000207190   0.799897919
C        0.449987006   0.050098608   0.850216371
C        0.399905122   0.199901549  -0.000076183
C        0.450090547   0.250127189   0.050091661
C        0.399857970   0.199836329   0.199836329
C        0.450051938   0.250332700   0.250332700
C        0.399560409   0.199781455   0.399560408
C        0.452135585   0.247569152   0.452135586
C        0.400120261   0.199320269   0.599607748
C        0.449876027   0.250400221   0.650680011
C        0.400057656   0.199557262   0.799885535
C        0.450086937   0.250108921   0.850057803
C        0.399757471   0.399757473  -0.000079701
C        0.450219964   0.450219963   0.050087718
C        0.399560408   0.399560409   0.199781455
C        0.452135585   0.452135586   0.247569152
B        0.396313388   0.396313389   0.396313388
B        0.453686584   0.453686583   0.453686583
C        0.397865756   0.397865755   0.602427776
C        0.450440648   0.450440647   0.650212234
C        0.399783400   0.399783401   0.799908996
C        0.450241656   0.450241656   0.850084117
C        0.399924560   0.599876775  -0.000055719
C        0.449939869   0.650439897   0.050108842
C        0.400120262   0.599607749   0.199320268
C        0.449876027   0.650680010   0.250400221
C        0.397865755   0.602427777   0.397865754
C        0.450440648   0.650212235   0.450440648
C        0.399948880   0.599668183   0.599668183
C        0.450136918   0.650163987   0.650163987
C        0.399905916   0.599878397   0.799903741
C        0.450095968   0.650093905   0.850083913
C        0.400013626   0.799897920  -0.000207191
C        0.449987006   0.850216371   0.050098609
C        0.400057655   0.799885536   0.199557262
C        0.450086937   0.850057804   0.250108922
C        0.399783400   0.799908996   0.399783401
C        0.450241656   0.850084117   0.450241656
C        0.399905916   0.799903741   0.599878397
C        0.450095967   0.850083913   0.650093905
C        0.399946022   0.799924211   0.799924212
C        0.450002242   0.850139984   0.850139985
C        0.599957904  -0.000064165  -0.000064165
C        0.650032688   0.050052401   0.050052400
C        0.599977099  -0.000079341   0.199937481
C        0.650023563   0.050095137   0.250070157
C        0.599876775  -0.000055720   0.399924560
C        0.650439897   0.050108841   0.449939870
C        0.599863026   0.000017553   0.599863027
C        0.650111879   0.050057820   0.650111879
C        0.599938630  -0.000066451   0.799901338
C        0.650047712   0.050038845   0.850070818
C        0.599977099   0.199937480  -0.000079340
C        0.650023562   0.250070157   0.050095137
C        0.599991643   0.199905358   0.199905359
C        0.649986405   0.250245987   0.250245987
C        0.599607749   0.199320268   0.400120261
C        0.650680011   0.250400221   0.449876027
C        0.599754254   0.200023775   0.599754254
C        0.650093181   0.250013064   0.650093181
C        0.599939196   0.199976529   0.799901365
C        0.650073561   0.250025547   0.850065019
C        0.599876775   0.399924559  -0.000055720
C        0.650439897   0.449939869   0.050108842
C        0.599607749   0.400120262   0.199320268
C        0.650680011   0.449876027   0.250400221
C        0.602427777   0.397865755   0.397865755
C        0.650212235   0.450440647   0.450440648
C        0.599668182   0.399948879   0.599668182
C        0.650163987   0.450136918   0.650163987
C        0.599878397   0.399905916   0.799903741
C        0.650093904   0.450095968   0.850083913
C        0.599863026   0.599863026   0.000017553
C        0.650111879   0.650111879   0.050057820
C        0.599754255   0.599754254   0.200023775
C        0.650093181   0.650093181   0.250013065
C        0.599668183   0.599668183   0.399948879
C        0.650163988   0.650163987   0.450136918
C        0.599845650   0.599845650   0.599845650
C        0.650115969   0.650115969   0.650115969
C        0.599905966   0.599905966   0.799928716
C        0.650101873   0.650101873   0.850084040
C        0.599938630   0.799901337  -0.000066450
C        0.650047712   0.850070817   0.050038846
C        0.599939198   0.799901365   0.199976528
C        0.650073562   0.850065018   0.250025547
C        0.599878398   0.799903741   0.399905915
C        0.650093905   0.850083913   0.450095968
C        0.599905966   0.799928716   0.599905965
C        0.650101873   0.850084040   0.650101873
C        0.599933775   0.799916452   0.799916451
C        0.650068560   0.850082707   0.850082707
C        0.799958374  -0.000052406  -0.000052407
C        0.850056170   0.050054845   0.050054844
C        0.799956646  -0.000065280   0.199948373
C        0.850066012   0.050095521   0.250061196
C        0.799897919  -0.000207191   0.400013626
C        0.850216371   0.050098609   0.449987006
C        0.799901337  -0.000066452   0.599938631
C        0.850070818   0.050038845   0.650047713
C        0.799942029  -0.000045379   0.799942029
C        0.850054236   0.050038535   0.850054235
C        0.799956645   0.199948374  -0.000065280
C        0.850066012   0.250061196   0.050095521
C        0.799939483   0.199891350   0.199891350
C        0.849969414   0.250139015   0.250139014
C        0.799885535   0.199557261   0.400057656
C        0.850057803   0.250108921   0.450086938
C        0.799901364   0.199976529   0.599939197
C        0.850065018   0.250025547   0.650073561
C        0.799943461   0.199968355   0.799943462
C        0.850065838   0.250029208   0.850065838
C        0.799897920   0.400013626  -0.000207192
C        0.850216371   0.449987007   0.050098608
C        0.799885535   0.400057655   0.199557261
C        0.850057803   0.450086937   0.250108921
C        0.799908996   0.399783400   0.399783400
C        0.850084116   0.450241656   0.450241657
C        0.799903740   0.399905914   0.599878398
C        0.850083913   0.450095968   0.650093905
C        0.799924211   0.399946023   0.799924211
C        0.850139983   0.450002243   0.850139984
C        0.799901337   0.599938630  -0.000066452
C        0.850070817   0.650047712   0.050038846
C        0.799901365   0.599939197   0.199976528
C        0.850065017   0.650073562   0.250025548
C        0.799903740   0.599878398   0.399905915
C        0.850083913   0.650093905   0.450095968
C        0.799928716   0.599905965   0.599905966
C        0.850084040   0.650101873   0.650101873
C        0.799916452   0.599933775   0.799916451
C        0.850082707   0.650068560   0.850082706
C        0.799942029   0.799942029  -0.000045378
C        0.850054235   0.850054236   0.050038536
C        0.799943460   0.799943461   0.199968358
C        0.850065839   0.850065837   0.250029209
C        0.799924211   0.799924212   0.399946023
C        0.850139984   0.850139984   0.450002242
C        0.799916451   0.799916452   0.599933775
C        0.850082707   0.850082707   0.650068560
C        0.799925024   0.799925024   0.799925024
C        0.850056987   0.850056987   0.850056987



     Writing output data file b.save
     NEW-OLD atomic charge density approx. for the potential
     extrapolated charge  971.78711, renormalised to  998.00000

     total cpu time spent up to now is      300.1 secs

     per-process dynamical memory:   119.1 Mb

     Self-consistent Calculation

     iteration #  1     ecut=    50.00 Ry     beta=0.70
     Davidson diagonalization with overlap
     c_bands:  1 eigenvalues not converged
     ethr =  1.00E-06,  avg # of iterations = 20.0

     total cpu time spent up to now is      334.5 secs

     total energy              =   -2834.31790338 Ry
     Harris-Foulkes estimate   =   -2816.32181782 Ry
     estimated scf accuracy    <       0.39742098 Ry

     iteration #  2     ecut=    50.00 Ry     beta=0.70
     Davidson diagonalization with overlap
     ethr =  3.98E-05,  avg # of iterations =  6.0

     total cpu time spent up to now is      350.3 secs

     total energy              =   -2834.45076670 Ry
     Harris-Foulkes estimate   =   -2834.45480420 Ry
     estimated scf accuracy    <       0.01633140 Ry

     iteration #  3     ecut=    50.00 Ry     beta=0.70
     Davidson diagonalization with overlap
     ethr =  1.64E-06,  avg # of iterations = 12.0

     total cpu time spent up to now is      367.6 secs

     total energy              =   -2834.44993546 Ry
     Harris-Foulkes estimate   =   -2834.45164314 Ry
     estimated scf accuracy    <       0.00537714 Ry

     iteration #  4     ecut=    50.00 Ry     beta=0.70
     Davidson diagonalization with overlap
     ethr =  5.39E-07,  avg # of iterations =  7.0

     total cpu time spent up to now is      379.0 secs

     total energy              =   -2834.45026367 Ry
     Harris-Foulkes estimate   =   -2834.45043809 Ry
     estimated scf accuracy    <       0.00097607 Ry

     iteration #  5     ecut=    50.00 Ry     beta=0.70
     Davidson diagonalization with overlap
     ethr =  9.78E-08,  avg # of iterations =  9.0

     total cpu time spent up to now is      393.1 secs

     total energy              =   -2834.45025887 Ry
     Harris-Foulkes estimate   =   -2834.45033367 Ry
     estimated scf accuracy    <       0.00025340 Ry

     iteration #  6     ecut=    50.00 Ry     beta=0.70
     Davidson diagonalization with overlap
     ethr =  2.54E-08,  avg # of iterations =  7.0

     total cpu time spent up to now is      407.0 secs

     total energy              =   -2834.45028596 Ry
     Harris-Foulkes estimate   =   -2834.45029061 Ry
     estimated scf accuracy    <       0.00002218 Ry

     iteration #  7     ecut=    50.00 Ry     beta=0.70
     Davidson diagonalization with overlap
     ethr =  2.22E-09,  avg # of iterations =  8.0

     total cpu time spent up to now is      423.4 secs

     total energy              =   -2834.45028753 Ry
     Harris-Foulkes estimate   =   -2834.45028896 Ry
     estimated scf accuracy    <       0.00000523 Ry

     iteration #  8     ecut=    50.00 Ry     beta=0.70
     Davidson diagonalization with overlap
     ethr =  5.24E-10,  avg # of iterations =  9.0

     total cpu time spent up to now is      441.3 secs

     total energy              =   -2834.45028781 Ry
     Harris-Foulkes estimate   =   -2834.45028835 Ry
     estimated scf accuracy    <       0.00000196 Ry

     iteration #  9     ecut=    50.00 Ry     beta=0.70
     Davidson diagonalization with overlap
     ethr =  1.96E-10,  avg # of iterations =  9.0

     total cpu time spent up to now is      454.5 secs

     total energy              =   -2834.45028790 Ry
     Harris-Foulkes estimate   =   -2834.45028798 Ry
     estimated scf accuracy    <       0.00000032 Ry

     iteration # 10     ecut=    50.00 Ry     beta=0.70
     Davidson diagonalization with overlap
     ethr =  3.23E-11,  avg # of iterations = 10.0

     total cpu time spent up to now is      476.0 secs

     total energy              =   -2834.45028795 Ry
     Harris-Foulkes estimate   =   -2834.45028796 Ry
     estimated scf accuracy    <       0.00000003 Ry

     iteration # 11     ecut=    50.00 Ry     beta=0.70
     Davidson diagonalization with overlap
     ethr =  3.08E-12,  avg # of iterations =  9.0

     total cpu time spent up to now is      493.4 secs

     total energy              =   -2834.45028795 Ry
     Harris-Foulkes estimate   =   -2834.45028795 Ry
     estimated scf accuracy    <          5.7E-09 Ry

     iteration # 12     ecut=    50.00 Ry     beta=0.70
     Davidson diagonalization with overlap
     ethr =  5.69E-13,  avg # of iterations =  9.0

     total cpu time spent up to now is      512.4 secs

     total energy              =   -2834.45028795 Ry
     Harris-Foulkes estimate   =   -2834.45028795 Ry
     estimated scf accuracy    <          5.6E-10 Ry

     iteration # 13     ecut=    50.00 Ry     beta=0.70
     Davidson diagonalization with overlap
     ethr =  1.00E-13,  avg # of iterations =  5.0

     total cpu time spent up to now is      520.3 secs

     total energy              =   -2834.45028795 Ry
     Harris-Foulkes estimate   =   -2834.45028795 Ry
     estimated scf accuracy    <          1.1E-10 Ry

     iteration # 14     ecut=    50.00 Ry     beta=0.70
     Davidson diagonalization with overlap
     ethr =  1.00E-13,  avg # of iterations =  4.0

     total cpu time spent up to now is      526.1 secs

     End of self-consistent calculation

          k = 0.0000 0.0000 0.0000 ( 56233 PWs)   bands (ev):

    -7.9381  -6.8554  -6.8451  -6.8371  -6.8371  -6.8051  -6.8051  -6.8003
    -6.6996  -6.4485  -6.4485  -6.4430  -6.4222  -6.4222  -6.2011  -4.9838
    -4.9770  -4.9770  -4.9703  -4.9703  -4.9659  -4.9549  -4.9549  -4.9306
    -4.9306  -4.9026  -4.7667  -3.9070  -3.9033  -3.9033  -3.8986  -3.8934
    -3.8934  -3.8853  -3.8853  -3.8824  -3.8824  -3.8795  -3.8766  -3.8733
    -3.8667  -3.8667  -3.8655  -3.8638  -3.8638  -3.8229  -3.8229  -3.7907
    -3.7907  -3.7255  -3.6716  -3.5541  -3.5473  -3.5294  -3.5294  -3.5167
    -3.5167  -3.4073  -3.0071  -2.0494  -2.0494  -2.0449  -2.0449  -2.0191
    -1.9756  -1.3915  -1.3856  -1.3758  -1.3758  -1.3688  -1.3688  -1.3668
    -1.3631  -1.3631  -1.3615  -1.3615  -1.3569  -1.3436  -1.3376  -1.3376
    -1.3323  -1.3323  -1.3094  -1.3094  -1.3025  -1.2617  -1.2617  -1.1738
    -1.0815  -0.8166  -0.8166  -0.8128  -0.8123  -0.8123  -0.8117  -0.8116
    -0.8081  -0.8003  -0.8003  -0.7988  -0.7988  -0.7827  -0.7798  -0.7798
    -0.7767  -0.7767  -0.7552  -0.7316  -0.7316  -0.7164  -0.7164  -0.3577
     0.2246   1.1072   1.1125   1.1125   1.1209   1.1209   1.1433   1.1433
     1.1440   1.1562   1.1562   1.2254   1.3251   1.4639   1.4721   1.4721
     1.4722   1.4862   1.4862   1.4883   1.4889   1.4889   1.4935   1.4935
     1.5227   1.5230   1.5305   1.5305   1.5361   1.5361   1.5495   1.5718
     1.5718   1.5951   1.6149   1.6149   1.6465   1.6926   1.6994   1.6994
     1.7089   1.7119   1.7119   1.7718   1.7718   1.7899   1.7899   2.0527
     2.1738   2.3269   2.3269   2.3351   2.3888   2.3888   2.4030   2.5052
     2.7196   3.6879   3.6879   3.6889   3.6889   3.6899   3.6930   3.6957
     3.7073   3.7085   3.7085   3.7149   3.7149   3.7199   3.7199   3.7249
     3.7384   3.7384   3.7721   3.7853   3.7853   3.8344   3.8344   4.1141
     4.1791   4.4769   4.4769   4.4916   4.4916   4.6181   4.6256   4.9123
     4.9159   4.9295   4.9295   4.9318   4.9318   4.9606   4.9656   4.9656
     4.9724   4.9724   4.9826   5.0179   5.0253   5.0253   5.0262   5.0262
     5.0368   5.0394   5.0398   5.0399   5.0399   5.0416   5.0416   5.0865
     5.0951   5.0951   5.0987   5.0987   5.1077   5.1077   5.1259   5.1404
     5.1404   5.3088   5.3701   5.4166   5.4189   5.4227   5.4227   5.4296
     5.4335   5.4335   5.4468   5.4482   5.4482   5.4493   5.4493   5.4640
     5.4658   5.4658   5.4696   5.4696   5.5168   5.5168   5.6386   5.6800
     5.6800   5.8044   6.0023   6.9207   6.9208   6.9208   6.9378   6.9378
     6.9533   6.9753   6.9753   6.9947   6.9947   7.0794   7.1598   7.3801
     7.3889   7.3912   7.3912   7.3926   7.3926   7.4304   7.4313   7.4345
     7.4345   7.4378   7.4378   7.4420   7.4497   7.4505   7.4505   7.4514
     7.4514   7.4589   7.4611   7.4611   7.4632   7.4632   7.4738   7.4939
     7.4939   7.5063   7.5074   7.5093   7.5097   7.5097   7.5166   7.5254
     7.5254   7.5353   7.5353   7.5488   7.5756   7.5756   7.5759   7.5759
     7.6109   7.6381   7.6381   7.6529   7.6529   7.7419   7.8326   7.8445
     7.8519   7.8519   7.8609   7.8609   7.8654   7.8687   7.8687   7.8785
     7.8785   7.8927   7.8936   7.8936   7.8983   7.9197   7.9197   7.9230
     7.9966   7.9966   8.0060   8.0060   8.0325   8.0759   8.0990   8.1304
     8.1391   8.1391   8.1670   8.1912   8.1912   8.2035   8.2849   8.2849
     8.3838   8.3838   8.5020   9.0506   9.0506   9.0680   9.0680   9.0703
     9.0706   9.1370   9.1550   9.2084   9.2084   9.2154   9.2235   9.2235
     9.2247   9.2274   9.2393   9.2434   9.2434   9.2592   9.2592   9.2633
     9.2633   9.2795   9.2907   9.2907   9.3204   9.3538   9.3538   9.3631
     9.3631   9.4561   9.4646   9.4646   9.4650   9.4672   9.4774   9.4774
     9.4896   9.4916   9.5132   9.5132   9.5372   9.5372   9.5394   9.5454
     9.5454   9.5487   9.5568   9.5568   9.5672   9.6590   9.6590   9.7110
     9.7110   9.8368   9.8408  10.0432  10.0481  10.0481  10.0545  10.0545
    10.0589  10.0681  10.0880  10.0933  10.0964  10.0964  10.1029  10.1168
    10.1168  10.1411  10.1411  10.1609  10.1609  10.1899  10.3050  10.3050
    10.3492  10.3492  10.5658  10.6877  10.7011  10.7106  10.7106  10.7304
    10.7304  10.7838  10.8358  10.8358  10.8683  10.8692  10.8692  11.0325
    11.0325  11.0354  11.0354  11.1920  11.2943  11.3061  11.3061  11.3105
    11.3121  11.3126  11.3126  11.4164  11.4164  11.4180  11.4180  11.4180
    11.5440  11.5440  11.5739  11.5739  11.8013  11.9825  11.9896  12.0328
    12.0328  12.0657  12.0657  12.0716  12.1361  12.1361  12.1964  12.1964
    12.4704  12.6519  12.6653  12.6653  12.6665  12.6665  12.6755  12.7698
    12.7698  12.7781  12.7781  12.7951  12.8525  12.8525  13.0360  13.0360
    13.9044  14.1195  14.1195  14.9395  18.4023  18.4023  18.4042  18.4068
    18.4068  18.4347  18.9624  18.9657  18.9657  19.0013  19.0082  19.0082
    19.5412  19.5469  19.5469  19.6016  19.6016  19.6063  19.6119  19.6119
    19.6360  19.6501  19.6501  19.6684  19.7476  19.9094  19.9094  20.3305
    20.3305  20.3418  20.3460  20.3460  20.3510  20.3538  20.3579  20.3579
    20.3661  20.3701  20.3701  20.3799  20.3799  20.3966  20.3966  20.4024
    20.4216  20.4279  20.4308  20.4379  20.4379  20.4399  20.4399  20.5105
    20.5105  20.5538  20.5538  20.5616  20.6425  21.4881  21.4956  21.4977
    21.4977  21.4993  21.4993  21.5244  21.5261  21.5261  21.5333  21.5333
    21.5378  21.5378  21.5494  21.5574  21.5574  21.5600  21.5600  21.5695
    21.5756  21.5756  21.5783  21.5974  21.6231  21.6231  21.6299  21.6299
    21.6427  21.6524  21.6729  21.6729  21.6784  21.6784  21.6932  21.6960
    21.7067  21.7102  21.7102  21.8623  21.8623  22.1559  22.1915  22.2152

[...]
     atom   23 type  1   force =    -0.00033950    0.00004132    0.00024826
     atom   24 type  1   force =    -0.00009668   -0.00004976    0.00010764
     atom   25 type  1   force =    -0.00016071    0.00028077    0.00016071
     atom   26 type  1   force =    -0.00001235   -0.00003281    0.00001235
     atom   27 type  1   force =     0.00006331    0.00035353   -0.00004389
     atom   28 type  1   force =     0.00016432   -0.00007994   -0.00001895
     atom   29 type  1   force =    -0.00015634    0.00012179    0.00008277
     atom   30 type  1   force =     0.00014851   -0.00009347   -0.00011444
     atom   31 type  1   force =    -0.00014460    0.00018778    0.00018779
     atom   32 type  1   force =     0.00006763   -0.00001419   -0.00001420
     atom   33 type  1   force =    -0.00000447    0.00022256    0.00010439
     atom   34 type  1   force =     0.00026394    0.00001161   -0.00010106
     atom   35 type  1   force =     0.00004389    0.00035353   -0.00006331
     atom   36 type  1   force =     0.00001895   -0.00007994   -0.00016432
     atom   37 type  1   force =     0.00010936    0.00037009   -0.00010937
     atom   38 type  1   force =     0.00037886    0.00018492   -0.00037886
     atom   39 type  1   force =    -0.00020039    0.00034248    0.00005606
     atom   40 type  1   force =     0.00011425    0.00013205   -0.00017637
     atom   41 type  1   force =     0.00000549    0.00009648    0.00009650
     atom   42 type  1   force =     0.00021413   -0.00013142   -0.00013142
     atom   43 type  1   force =     0.00013384    0.00017912    0.00012195
     atom   44 type  1   force =     0.00033492   -0.00005973   -0.00019466
     atom   45 type  1   force =    -0.00008278    0.00012178    0.00015634
     atom   46 type  1   force =     0.00011443   -0.00009347   -0.00014851
     atom   47 type  1   force =    -0.00005606    0.00034247    0.00020040
     atom   48 type  1   force =     0.00017637    0.00013206   -0.00011425
     atom   49 type  1   force =    -0.00013068    0.00021858    0.00013068
     atom   50 type  1   force =     0.00009200   -0.00000038   -0.00009201
     atom   51 type  1   force =    -0.00005576    0.00023173    0.00005577
     atom   52 type  1   force =     0.00015468    0.00000706   -0.00015469
     atom   53 type  1   force =    -0.00001159    0.00030693    0.00030693
     atom   54 type  1   force =     0.00025041    0.00016589    0.00016589
     atom   55 type  1   force =    -0.00004134    0.00024826    0.00033950
     atom   56 type  1   force =     0.00004977    0.00010765    0.00009669
     atom   57 type  1   force =    -0.00022256    0.00010439    0.00000447
     atom   58 type  1   force =    -0.00001161   -0.00010105   -0.00026393
     atom   59 type  1   force =    -0.00017911    0.00012193   -0.00013385
     atom   60 type  1   force =     0.00005973   -0.00019465   -0.00033491
     atom   61 type  1   force =    -0.00030693    0.00030693    0.00001159
     atom   62 type  1   force =    -0.00016590    0.00016591   -0.00025040
     atom   63 type  1   force =    -0.00026181    0.00026181    0.00026182
     atom   64 type  1   force =    -0.00006619    0.00006619    0.00006619
     atom   65 type  1   force =    -0.00022928    0.00022927    0.00022366
     atom   66 type  1   force =    -0.00000967    0.00000968   -0.00005446
     atom   67 type  1   force =    -0.00030923    0.00030923   -0.00018565
     atom   68 type  1   force =     0.00009896   -0.00009896   -0.00026112
     atom   69 type  1   force =    -0.00037472    0.00037473   -0.00020056
     atom   70 type  1   force =    -0.00009044    0.00009044   -0.00036692
     atom   71 type  1   force =    -0.00033950    0.00024825    0.00004133
     atom   72 type  1   force =    -0.00009668    0.00010764   -0.00004977
     atom   73 type  1   force =    -0.00022366    0.00022927    0.00022927
     atom   74 type  1   force =     0.00005446    0.00000967    0.00000967
     atom   75 type  1   force =    -0.00010197    0.00025547    0.00010197
     atom   76 type  1   force =     0.00019080   -0.00044521   -0.00019080
     atom   77 type  1   force =    -0.00025826    0.00021679    0.00004239
     atom   78 type  1   force =     0.00025588   -0.00003005   -0.00023568
     atom   79 type  1   force =    -0.00016043    0.00002133    0.00008674
     atom   80 type  1   force =    -0.00006001    0.00003207   -0.00034536
     atom   81 type  1   force =    -0.00000447    0.00010439    0.00022257
     atom   82 type  1   force =     0.00026393   -0.00010105    0.00001161
     atom   83 type  1   force =     0.00018564    0.00030923    0.00030924
     atom   84 type  1   force =     0.00026114   -0.00009895   -0.00009896
     atom   85 type  1   force =    -0.00004239    0.00021679    0.00025826
     atom   86 type  1   force =     0.00023568   -0.00003005   -0.00025588
     atom   87 type  1   force =    -0.00008656    0.00025933    0.00008656
     atom   88 type  1   force =     0.00030252    0.00018604   -0.00030253
     atom   89 type  1   force =    -0.00009850    0.00026888   -0.00001089
     atom   90 type  1   force =     0.00009995   -0.00000125   -0.00021909
     atom   91 type  1   force =     0.00013385    0.00012194    0.00017911
     atom   92 type  1   force =     0.00033492   -0.00019466   -0.00005973
     atom   93 type  1   force =     0.00020055    0.00037472    0.00037472
     atom   94 type  1   force =     0.00036693    0.00009044    0.00009043
     atom   95 type  1   force =    -0.00008674    0.00002132    0.00016043
     atom   96 type  1   force =     0.00034536    0.00003207    0.00006001
     atom   97 type  1   force =     0.00001090    0.00026888    0.00009851
     atom   98 type  1   force =     0.00021908   -0.00000125   -0.00009995
     atom   99 type  1   force =    -0.00001233    0.00007493    0.00001234
     atom  100 type  1   force =     0.00018829   -0.00015444   -0.00018829
     atom  101 type  1   force =    -0.00014130    0.00029893    0.00014130
     atom  102 type  1   force =     0.00000776    0.00012332   -0.00000775
     atom  103 type  1   force =    -0.00004133    0.00033949    0.00024826
     atom  104 type  1   force =     0.00004978    0.00009669    0.00010764
     atom  105 type  1   force =    -0.00028078    0.00016071    0.00016070
     atom  106 type  1   force =     0.00003280    0.00001235    0.00001235
     atom  107 type  1   force =    -0.00035353   -0.00006331   -0.00004390
     atom  108 type  1   force =     0.00007995   -0.00016432   -0.00001895
     atom  109 type  1   force =    -0.00012179    0.00015634    0.00008277
     atom  110 type  1   force =     0.00009347   -0.00014850   -0.00011444
     atom  111 type  1   force =    -0.00024826    0.00033949    0.00004133
     atom  112 type  1   force =    -0.00010765    0.00009669   -0.00004977
     atom  113 type  1   force =    -0.00022927    0.00022365    0.00022927
     atom  114 type  1   force =    -0.00000966   -0.00005446    0.00000967
     atom  115 type  1   force =    -0.00025547    0.00010197    0.00010197
     atom  116 type  1   force =     0.00044522   -0.00019078   -0.00019079
     atom  117 type  1   force =    -0.00021680    0.00025826    0.00004239
     atom  118 type  1   force =     0.00003006   -0.00025587   -0.00023568
     atom  119 type  1   force =    -0.00002133    0.00016043    0.00008675
     atom  120 type  1   force =    -0.00003206    0.00006001   -0.00034536
     atom  121 type  1   force =    -0.00016071    0.00016071    0.00028078
     atom  122 type  1   force =    -0.00001235    0.00001235   -0.00003281
     atom  123 type  1   force =    -0.00010198    0.00010197    0.00025547
     atom  124 type  1   force =     0.00019079   -0.00019078   -0.00044522
     atom  125 type  2   force =    -0.00054868    0.00054866    0.00054868
     atom  126 type  2   force =     0.00056387   -0.00056387   -0.00056387
     atom  127 type  1   force =    -0.00019553    0.00019553    0.00044957
     atom  128 type  1   force =     0.00010254   -0.00010253   -0.00025172
     atom  129 type  1   force =     0.00001168   -0.00001168    0.00005294
     atom  130 type  1   force =     0.00016693   -0.00016693   -0.00027555
     atom  131 type  1   force =     0.00004389   -0.00006331    0.00035353
     atom  132 type  1   force =     0.00001895   -0.00016431   -0.00007994
     atom  133 type  1   force =    -0.00004239    0.00025826    0.00021680
     atom  134 type  1   force =     0.00023568   -0.00025587   -0.00003005
     atom  135 type  1   force =    -0.00044957    0.00019553    0.00019553
     atom  136 type  1   force =     0.00025172   -0.00010253   -0.00010254
     atom  137 type  1   force =     0.00001494    0.00005702   -0.00001494
     atom  138 type  1   force =     0.00022738   -0.00022259   -0.00022738
     atom  139 type  1   force =     0.00010170   -0.00009471    0.00004161
     atom  140 type  1   force =     0.00025147   -0.00034360   -0.00003525
     atom  141 type  1   force =    -0.00008278    0.00015634    0.00012179
     atom  142 type  1   force =     0.00011444   -0.00014851   -0.00009347
     atom  143 type  1   force =    -0.00008675    0.00016043    0.00002132
     atom  144 type  1   force =     0.00034536    0.00006001    0.00003206
     atom  145 type  1   force =    -0.00005294   -0.00001168   -0.00001168
     atom  146 type  1   force =     0.00027555   -0.00016693   -0.00016693
     atom  147 type  1   force =    -0.00004160   -0.00009471   -0.00010171
     atom  148 type  1   force =     0.00003526   -0.00034360   -0.00025146
     atom  149 type  1   force =    -0.00000863   -0.00012016    0.00000862
     atom  150 type  1   force =     0.00013284   -0.00030414   -0.00013283
     atom  151 type  1   force =    -0.00018778    0.00014460    0.00018778
     atom  152 type  1   force =     0.00001420   -0.00006763   -0.00001420
     atom  153 type  1   force =    -0.00022256    0.00000447    0.00010439
     atom  154 type  1   force =    -0.00001161   -0.00026393   -0.00010106
     atom  155 type  1   force =    -0.00035353   -0.00004389   -0.00006331
     atom  156 type  1   force =     0.00007995   -0.00001894   -0.00016432
     atom  157 type  1   force =    -0.00037009   -0.00010937   -0.00010937
     atom  158 type  1   force =    -0.00018492   -0.00037885   -0.00037886
     atom  159 type  1   force =    -0.00034248    0.00020040    0.00005607
     atom  160 type  1   force =    -0.00013205   -0.00011425   -0.00017637
     atom  161 type  1   force =    -0.00010439    0.00000446    0.00022256
     atom  162 type  1   force =     0.00010105   -0.00026393    0.00001161
     atom  163 type  1   force =    -0.00030923   -0.00018565    0.00030923
     atom  164 type  1   force =     0.00009896   -0.00026113   -0.00009896
     atom  165 type  1   force =    -0.00021680    0.00004238    0.00025826
     atom  166 type  1   force =     0.00003006   -0.00023567   -0.00025587
     atom  167 type  1   force =    -0.00025934    0.00008655    0.00008656
     atom  168 type  1   force =    -0.00018603   -0.00030252   -0.00030253
     atom  169 type  1   force =    -0.00026888    0.00009850   -0.00001089
     atom  170 type  1   force =     0.00000124   -0.00009995   -0.00021909
     atom  171 type  1   force =     0.00006331   -0.00004388    0.00035353
     atom  172 type  1   force =     0.00016432   -0.00001894   -0.00007995
     atom  173 type  1   force =    -0.00025826    0.00004238    0.00021680
     atom  174 type  1   force =     0.00025587   -0.00023567   -0.00003005
     atom  175 type  1   force =    -0.00019553    0.00044956    0.00019553
     atom  176 type  1   force =     0.00010253   -0.00025173   -0.00010253
     atom  177 type  1   force =    -0.00005703   -0.00001495   -0.00001494
     atom  178 type  1   force =     0.00022260   -0.00022738   -0.00022739
     atom  179 type  1   force =     0.00009471   -0.00010170    0.00004160
     atom  180 type  1   force =     0.00034360   -0.00025147   -0.00003525
     atom  181 type  1   force =     0.00010937   -0.00010938    0.00037010
     atom  182 type  1   force =     0.00037885   -0.00037885    0.00018492
     atom  183 type  1   force =    -0.00008656    0.00008655    0.00025933
     atom  184 type  1   force =     0.00030252   -0.00030252    0.00018604
     atom  185 type  1   force =     0.00001495   -0.00001495    0.00005703
     atom  186 type  1   force =     0.00022738   -0.00022738   -0.00022260
     atom  187 type  1   force =     0.00005232   -0.00005233   -0.00005232
     atom  188 type  1   force =     0.00026439   -0.00026439   -0.00026438
     atom  189 type  1   force =     0.00016680   -0.00016680    0.00025131
     atom  190 type  1   force =     0.00030917   -0.00030916   -0.00001722
     atom  191 type  1   force =    -0.00005606    0.00020039    0.00034248
     atom  192 type  1   force =     0.00017636   -0.00011425    0.00013206
     atom  193 type  1   force =     0.00001090    0.00009850    0.00026887
     atom  194 type  1   force =     0.00021908   -0.00009995   -0.00000124
     atom  195 type  1   force =    -0.00004160   -0.00010171   -0.00009471
     atom  196 type  1   force =     0.00003526   -0.00025147   -0.00034359
     atom  197 type  1   force =    -0.00025131   -0.00016680   -0.00016681
     atom  198 type  1   force =     0.00001723   -0.00030917   -0.00030917
     atom  199 type  1   force =    -0.00014876   -0.00000258    0.00014876
     atom  200 type  1   force =     0.00005775   -0.00023752   -0.00005776
     atom  201 type  1   force =    -0.00009649   -0.00000549    0.00009649
     atom  202 type  1   force =     0.00013142   -0.00021413   -0.00013142
     atom  203 type  1   force =    -0.00017912   -0.00013386    0.00012195
     atom  204 type  1   force =     0.00005973   -0.00033490   -0.00019466
     atom  205 type  1   force =    -0.00012179    0.00008277    0.00015634
     atom  206 type  1   force =     0.00009347   -0.00011443   -0.00014851
     atom  207 type  1   force =    -0.00034248    0.00005606    0.00020040
     atom  208 type  1   force =    -0.00013205   -0.00017636   -0.00011426
     atom  209 type  1   force =    -0.00021858    0.00013069    0.00013069
     atom  210 type  1   force =     0.00000039   -0.00009200   -0.00009201
     atom  211 type  1   force =    -0.00012195   -0.00013386    0.00017912
     atom  212 type  1   force =     0.00019466   -0.00033491   -0.00005974
     atom  213 type  1   force =    -0.00037473   -0.00020056    0.00037473
     atom  214 type  1   force =    -0.00009043   -0.00036692    0.00009043
     atom  215 type  1   force =    -0.00002133    0.00008674    0.00016043
     atom  216 type  1   force =    -0.00003207   -0.00034535    0.00006001
     atom  217 type  1   force =    -0.00026888   -0.00001091    0.00009851
     atom  218 type  1   force =     0.00000125   -0.00021908   -0.00009996
     atom  219 type  1   force =    -0.00007493    0.00001233    0.00001234
     atom  220 type  1   force =     0.00015444   -0.00018829   -0.00018830
     atom  221 type  1   force =    -0.00015634    0.00008276    0.00012180
     atom  222 type  1   force =     0.00014850   -0.00011443   -0.00009347
     atom  223 type  1   force =    -0.00016043    0.00008674    0.00002132
     atom  224 type  1   force =    -0.00006001   -0.00034535    0.00003207
     atom  225 type  1   force =     0.00001168    0.00005294   -0.00001168
     atom  226 type  1   force =     0.00016693   -0.00027555   -0.00016693
     atom  227 type  1   force =     0.00009471    0.00004160   -0.00010170
     atom  228 type  1   force =     0.00034360   -0.00003526   -0.00025147
     atom  229 type  1   force =     0.00012016    0.00000863    0.00000863
     atom  230 type  1   force =     0.00030414   -0.00013283   -0.00013284
     atom  231 type  1   force =    -0.00020039    0.00005606    0.00034248
     atom  232 type  1   force =     0.00011425   -0.00017636    0.00013206
     atom  233 type  1   force =    -0.00009850   -0.00001090    0.00026888
     atom  234 type  1   force =     0.00009995   -0.00021908   -0.00000125
     atom  235 type  1   force =     0.00010170    0.00004160   -0.00009471
     atom  236 type  1   force =     0.00025147   -0.00003525   -0.00034360
     atom  237 type  1   force =     0.00016681    0.00025131   -0.00016681
     atom  238 type  1   force =     0.00030916   -0.00001722   -0.00030916
     atom  239 type  1   force =     0.00000258    0.00014876    0.00014876
     atom  240 type  1   force =     0.00023753   -0.00005775   -0.00005774
     atom  241 type  1   force =    -0.00013068    0.00013068    0.00021858
     atom  242 type  1   force =     0.00009200   -0.00009200   -0.00000039
     atom  243 type  1   force =    -0.00001233    0.00001233    0.00007493
     atom  244 type  1   force =     0.00018830   -0.00018829   -0.00015445
     atom  245 type  1   force =    -0.00000864    0.00000863   -0.00012016
     atom  246 type  1   force =     0.00013285   -0.00013284   -0.00030415
     atom  247 type  1   force =    -0.00014876    0.00014876   -0.00000258
     atom  248 type  1   force =     0.00005775   -0.00005775   -0.00023753
     atom  249 type  1   force =    -0.00020993    0.00020993    0.00020993
     atom  250 type  1   force =     0.00002430   -0.00002431   -0.00002430

     Total force =     0.005135     Total SCF correction =     0.000002


     Computing stress (Cartesian axis) and pressure

          total   stress  (Ry/bohr**3)                   (kbar)     P=   -4.13
  -0.00002808   0.00000243   0.00000243         -4.13      0.36      0.36
   0.00000243  -0.00002808  -0.00000243          0.36     -4.13     -0.36
   0.00000243  -0.00000243  -0.00002808          0.36     -0.36     -4.13


     Writing output data file b.save
 
     init_run     :      3.55s CPU      4.05s WALL (       2 calls)
     electrons    :   1739.35s CPU   1770.09s WALL (       8 calls)
     update_pot   :      1.64s CPU      1.99s WALL (       6 calls)
     forces       :     11.08s CPU     11.72s WALL (       8 calls)
     stress       :     76.12s CPU     76.56s WALL (       8 calls)

     Called by init_run:
     wfcinit      :      2.75s CPU      2.90s WALL (       2 calls)
     potinit      :      0.17s CPU      0.19s WALL (       2 calls)

     Called by electrons:
     c_bands      :   1703.86s CPU   1733.26s WALL (     117 calls)
     sum_band     :     31.09s CPU     31.64s WALL (     117 calls)
     v_of_rho     :      1.59s CPU      1.62s WALL (     122 calls)
     mix_rho      :      2.07s CPU      2.11s WALL (     117 calls)

     Called by c_bands:
     init_us_2    :      2.04s CPU      2.31s WALL (     236 calls)
     cegterg      :   1697.45s CPU   1726.67s WALL (     118 calls)

     Called by sum_band:

     Called by *egterg:
     h_psi        :    342.42s CPU    346.10s WALL (    1076 calls)
     g_psi        :      0.54s CPU      0.55s WALL (     956 calls)
     cdiaghg      :   1171.08s CPU   1187.16s WALL (    1064 calls)

     Called by h_psi:
     h_psi:pot    :    340.95s CPU    344.61s WALL (    1076 calls)
     h_psi:calbec :     89.32s CPU     90.51s WALL (    1076 calls)
     vloc_psi     :    172.42s CPU    173.71s WALL (    1076 calls)
     add_vuspsi   :     79.19s CPU     80.37s WALL (    1076 calls)

     General routines
     calbec       :     99.40s CPU    100.72s WALL (    1116 calls)
     fft          :      1.57s CPU      1.85s WALL (    1410 calls)
     ffts         :      1.27s CPU      1.28s WALL (    1690 calls)
     fftw         :    193.87s CPU    195.39s WALL (  476106 calls)
 
     Parallel routines
     fft_scatter  :    129.21s CPU    130.54s WALL (  479206 calls)
 
     PWSCF        : 30m37.56s CPU    31m14.98s WALL

 
   This run was terminated on:  10:42:20  10Jan2021            

=------------------------------------------------------------------------------=
   JOB DONE.
=------------------------------------------------------------------------------=
