
     Program PWSCF v.6.1 (svn rev. 13369) starts on 11Jan2021 at 19:18:15 

     This program is part of the open-source Quantum ESPRESSO suite
     for quantum simulation of materials; please cite
         "P. Giannozzi et al., J. Phys.:Condens. Matter 21 395502 (2009);
          URL http://www.quantum-espresso.org", 
     in publications or presentations arising from this work. More details at
     http://www.quantum-espresso.org/quote

     Parallel version (MPI & OpenMP), running on      40 processor cores
     Number of MPI processes:                40
     Threads/MPI process:                     1
     R & G space division:  proc/nbgrp/npool/nimage =      40
     Waiting for input...
     Reading input from standard input

     Current dimensions of program PWSCF are:
     Max number of different atomic species (ntypx) = 10
     Max number of k-points (npk) =  40000
     Max angular momentum in pseudopotentials (lmaxx) =  3

     IMPORTANT: XC functional enforced from input :
     Exchange-correlation      = PBE ( 1  4  3  4 0 0)
     Any further DFT definition will be discarded
     Please, verify this is what you really want


     Subspace diagonalization in iterative solution of the eigenvalue problem:
     one sub-group per band group will be used
     scalapack distributed-memory algorithm (size of sub-group:  4*  4 procs)

 
     Parallelization info
     --------------------
     sticks:   dense  smooth     PW     G-vecs:    dense   smooth      PW
     Min           9       9      3                  116      116      23
     Max          10      10      4                  120      120      27
     Sum         367     367    121                 4693     4693     941
 


     bravais-lattice index     =            2
     lattice parameter (alat)  =       6.7242  a.u.
     unit-cell volume          =      76.0093 (a.u.)^3
     number of atoms/cell      =            2
     number of atomic types    =            1
     number of electrons       =         8.00
     number of Kohn-Sham states=            8
     kinetic-energy cutoff     =      60.0000  Ry
     charge density cutoff     =     240.0000  Ry
     convergence threshold     =      1.0E-15
     mixing beta               =       0.7000
     number of iterations used =            8  local-TF  mixing
     Exchange-correlation      = PBE ( 1  4  3  4 0 0)
     nstep                     =           50


     celldm(1)=   6.724225  celldm(2)=   0.000000  celldm(3)=   0.000000
     celldm(4)=   0.000000  celldm(5)=   0.000000  celldm(6)=   0.000000

     crystal axes: (cart. coord. in units of alat)
               a(1) = (  -0.500000   0.000000   0.500000 )  
               a(2) = (   0.000000   0.500000   0.500000 )  
               a(3) = (  -0.500000   0.500000   0.000000 )  

     reciprocal axes: (cart. coord. in units 2 pi/alat)
               b(1) = ( -1.000000 -1.000000  1.000000 )  
               b(2) = (  1.000000  1.000000  1.000000 )  
               b(3) = ( -1.000000  1.000000 -1.000000 )  


     PseudoPot. # 1 for C  read from file:
     ../C_ONCV_PBE-1.0.upf
     MD5 check sum: 40f8c33130f0afa4272e9dcc1c4fb0df
     Pseudo is Norm-conserving, Zval =  4.0
     Generated using ONCVPSP code by D. R. Hamann
     Using radial grid of  602 points,  4 beta functions with: 
                l(1) =   0
                l(2) =   0
                l(3) =   1
                l(4) =   1

     atomic species   valence    mass     pseudopotential
        C              4.00    12.01100     C ( 1.00)

     No symmetry found



   Cartesian axes

     site n.     atom                  positions (alat units)
         1           C   tau(   1) = (   0.0000000   0.0000000   0.0000000  )
         2           C   tau(   2) = (  -0.2500000   0.2500000   0.2500000  )

     number of k points=    64
                       cart. coord. in units 2pi/alat
        k(    1) = (   0.0000000   0.0000000   0.0000000), wk =   0.0312500
        k(    2) = (  -0.2500000   0.2500000  -0.2500000), wk =   0.0312500
        k(    3) = (   0.5000000  -0.5000000   0.5000000), wk =   0.0312500
        k(    4) = (   0.2500000  -0.2500000   0.2500000), wk =   0.0312500
        k(    5) = (   0.2500000   0.2500000   0.2500000), wk =   0.0312500
        k(    6) = (   0.0000000   0.5000000   0.0000000), wk =   0.0312500
        k(    7) = (   0.7500000  -0.2500000   0.7500000), wk =   0.0312500
        k(    8) = (   0.5000000   0.0000000   0.5000000), wk =   0.0312500
        k(    9) = (  -0.5000000  -0.5000000  -0.5000000), wk =   0.0312500
        k(   10) = (  -0.7500000  -0.2500000  -0.7500000), wk =   0.0312500
        k(   11) = (   0.0000000  -1.0000000   0.0000000), wk =   0.0312500
        k(   12) = (  -0.2500000  -0.7500000  -0.2500000), wk =   0.0312500
        k(   13) = (  -0.2500000  -0.2500000  -0.2500000), wk =   0.0312500
        k(   14) = (  -0.5000000   0.0000000  -0.5000000), wk =   0.0312500
        k(   15) = (   0.2500000  -0.7500000   0.2500000), wk =   0.0312500
        k(   16) = (   0.0000000  -0.5000000   0.0000000), wk =   0.0312500
        k(   17) = (  -0.2500000  -0.2500000   0.2500000), wk =   0.0312500
        k(   18) = (  -0.5000000   0.0000000   0.0000000), wk =   0.0312500
        k(   19) = (   0.2500000  -0.7500000   0.7500000), wk =   0.0312500
        k(   20) = (   0.0000000  -0.5000000   0.5000000), wk =   0.0312500
        k(   21) = (   0.0000000   0.0000000   0.5000000), wk =   0.0312500
        k(   22) = (  -0.2500000   0.2500000   0.2500000), wk =   0.0312500
        k(   23) = (   0.5000000  -0.5000000   1.0000000), wk =   0.0312500
        k(   24) = (   0.2500000  -0.2500000   0.7500000), wk =   0.0312500
        k(   25) = (  -0.7500000  -0.7500000  -0.2500000), wk =   0.0312500
        k(   26) = (  -1.0000000  -0.5000000  -0.5000000), wk =   0.0312500
        k(   27) = (  -0.2500000  -1.2500000   0.2500000), wk =   0.0312500
        k(   28) = (  -0.5000000  -1.0000000   0.0000000), wk =   0.0312500
        k(   29) = (  -0.5000000  -0.5000000   0.0000000), wk =   0.0312500
        k(   30) = (  -0.7500000  -0.2500000  -0.2500000), wk =   0.0312500
        k(   31) = (   0.0000000  -1.0000000   0.5000000), wk =   0.0312500
        k(   32) = (  -0.2500000  -0.7500000   0.2500000), wk =   0.0312500
        k(   33) = (   0.5000000   0.5000000  -0.5000000), wk =   0.0312500
        k(   34) = (   0.2500000   0.7500000  -0.7500000), wk =   0.0312500
        k(   35) = (   1.0000000   0.0000000   0.0000000), wk =   0.0312500
        k(   36) = (   0.7500000   0.2500000  -0.2500000), wk =   0.0312500
        k(   37) = (   0.7500000   0.7500000  -0.2500000), wk =   0.0312500
        k(   38) = (   0.5000000   1.0000000  -0.5000000), wk =   0.0312500
        k(   39) = (   1.2500000   0.2500000   0.2500000), wk =   0.0312500
        k(   40) = (   1.0000000   0.5000000   0.0000000), wk =   0.0312500
        k(   41) = (   0.0000000   0.0000000  -1.0000000), wk =   0.0312500
        k(   42) = (  -0.2500000   0.2500000  -1.2500000), wk =   0.0312500
        k(   43) = (   0.5000000  -0.5000000  -0.5000000), wk =   0.0312500
        k(   44) = (   0.2500000  -0.2500000  -0.7500000), wk =   0.0312500
        k(   45) = (   0.2500000   0.2500000  -0.7500000), wk =   0.0312500
        k(   46) = (   0.0000000   0.5000000  -1.0000000), wk =   0.0312500
        k(   47) = (   0.7500000  -0.2500000  -0.2500000), wk =   0.0312500
        k(   48) = (   0.5000000   0.0000000  -0.5000000), wk =   0.0312500
        k(   49) = (   0.2500000   0.2500000  -0.2500000), wk =   0.0312500
        k(   50) = (   0.0000000   0.5000000  -0.5000000), wk =   0.0312500
        k(   51) = (   0.7500000  -0.2500000   0.2500000), wk =   0.0312500
        k(   52) = (   0.5000000   0.0000000   0.0000000), wk =   0.0312500
        k(   53) = (   0.5000000   0.5000000   0.0000000), wk =   0.0312500
        k(   54) = (   0.2500000   0.7500000  -0.2500000), wk =   0.0312500
        k(   55) = (   1.0000000   0.0000000   0.5000000), wk =   0.0312500
        k(   56) = (   0.7500000   0.2500000   0.2500000), wk =   0.0312500
        k(   57) = (  -0.2500000  -0.2500000  -0.7500000), wk =   0.0312500
        k(   58) = (  -0.5000000   0.0000000  -1.0000000), wk =   0.0312500
        k(   59) = (   0.2500000  -0.7500000  -0.2500000), wk =   0.0312500
        k(   60) = (   0.0000000  -0.5000000  -0.5000000), wk =   0.0312500
        k(   61) = (   0.0000000   0.0000000  -0.5000000), wk =   0.0312500
        k(   62) = (  -0.2500000   0.2500000  -0.7500000), wk =   0.0312500
        k(   63) = (   0.5000000  -0.5000000   0.0000000), wk =   0.0312500
        k(   64) = (   0.2500000  -0.2500000  -0.2500000), wk =   0.0312500

     Dense  grid:     4693 G-vectors     FFT dimensions: (  24,  24,  24)

     Estimated max dynamical RAM per process >       0.25MB

     Estimated total allocated dynamical RAM >      10.14MB

     Initial potential from superposition of free atoms

     starting charge    7.98607, renormalised to    8.00000
     Starting wfc are random

     total cpu time spent up to now is        0.2 secs

     per-process dynamical memory:    12.3 Mb

     Self-consistent Calculation

     iteration #  1     ecut=    60.00 Ry     beta=0.70
     Davidson diagonalization with overlap
     ethr =  1.00E-02,  avg # of iterations =  7.0

     total cpu time spent up to now is        1.7 secs

     total energy              =     -22.77938297 Ry
     Harris-Foulkes estimate   =     -22.81842160 Ry
     estimated scf accuracy    <       0.11993706 Ry

     iteration #  2     ecut=    60.00 Ry     beta=0.70
     Davidson diagonalization with overlap
     ethr =  1.50E-03,  avg # of iterations =  1.2

     total cpu time spent up to now is        2.1 secs

     total energy              =     -22.77111724 Ry
     Harris-Foulkes estimate   =     -22.78257687 Ry
     estimated scf accuracy    <       0.02698677 Ry

     iteration #  3     ecut=    60.00 Ry     beta=0.70
     Davidson diagonalization with overlap
     ethr =  3.37E-04,  avg # of iterations =  2.0

     total cpu time spent up to now is        2.6 secs

     total energy              =     -22.77383917 Ry
     Harris-Foulkes estimate   =     -22.77367603 Ry
     estimated scf accuracy    <       0.00013361 Ry

     iteration #  4     ecut=    60.00 Ry     beta=0.70
     Davidson diagonalization with overlap
     ethr =  1.67E-06,  avg # of iterations =  3.0

     total cpu time spent up to now is        3.4 secs

     total energy              =     -22.77391618 Ry
     Harris-Foulkes estimate   =     -22.77391540 Ry
     estimated scf accuracy    <       0.00001602 Ry

     iteration #  5     ecut=    60.00 Ry     beta=0.70
     Davidson diagonalization with overlap
     ethr =  2.00E-07,  avg # of iterations =  2.0

     total cpu time spent up to now is        3.9 secs

     total energy              =     -22.77391741 Ry
     Harris-Foulkes estimate   =     -22.77391764 Ry
     estimated scf accuracy    <       0.00000065 Ry

     iteration #  6     ecut=    60.00 Ry     beta=0.70
     Davidson diagonalization with overlap
     ethr =  8.08E-09,  avg # of iterations =  2.7

     total cpu time spent up to now is        4.5 secs

     total energy              =     -22.77391747 Ry
     Harris-Foulkes estimate   =     -22.77391747 Ry
     estimated scf accuracy    <       0.00000001 Ry

     iteration #  7     ecut=    60.00 Ry     beta=0.70
     Davidson diagonalization with overlap
     ethr =  1.45E-10,  avg # of iterations =  2.5

     total cpu time spent up to now is        5.1 secs

     total energy              =     -22.77391747 Ry
     Harris-Foulkes estimate   =     -22.77391747 Ry
     estimated scf accuracy    <          6.6E-10 Ry

     iteration #  8     ecut=    60.00 Ry     beta=0.70
     Davidson diagonalization with overlap
     ethr =  8.24E-12,  avg # of iterations =  2.7

     total cpu time spent up to now is        5.8 secs

     total energy              =     -22.77391747 Ry
     Harris-Foulkes estimate   =     -22.77391747 Ry
     estimated scf accuracy    <          2.0E-11 Ry

     iteration #  9     ecut=    60.00 Ry     beta=0.70
     Davidson diagonalization with overlap
     ethr =  2.47E-13,  avg # of iterations =  2.5

     total cpu time spent up to now is        6.4 secs

     total energy              =     -22.77391747 Ry
     Harris-Foulkes estimate   =     -22.77391747 Ry
     estimated scf accuracy    <          5.1E-13 Ry

     iteration # 10     ecut=    60.00 Ry     beta=0.70
     Davidson diagonalization with overlap
     ethr =  1.00E-13,  avg # of iterations =  1.0

     total cpu time spent up to now is        6.7 secs

     total energy              =     -22.77391747 Ry
     Harris-Foulkes estimate   =     -22.77391747 Ry
     estimated scf accuracy    <          6.8E-14 Ry

     iteration # 11     ecut=    60.00 Ry     beta=0.70
     Davidson diagonalization with overlap
     ethr =  1.00E-13,  avg # of iterations =  1.0

     total cpu time spent up to now is        7.1 secs

     total energy              =     -22.77391747 Ry
     Harris-Foulkes estimate   =     -22.77391747 Ry
     estimated scf accuracy    <          1.5E-15 Ry

     iteration # 12     ecut=    60.00 Ry     beta=0.70
     Davidson diagonalization with overlap
     ethr =  1.00E-13,  avg # of iterations =  1.0

     total cpu time spent up to now is        7.4 secs

     End of self-consistent calculation

          k = 0.0000 0.0000 0.0000 (   609 PWs)   bands (ev):

    -8.0705  13.4761  13.4761  13.4761  19.0954  19.0954  19.0954  26.9804

          k =-0.2500 0.2500-0.2500 (   595 PWs)   bands (ev):

    -6.3485   6.8630  11.7231  11.7231  21.3074  21.3074  21.7074  28.2297

          k = 0.5000-0.5000 0.5000 (   580 PWs)   bands (ev):

    -2.2546   0.0379  10.6605  10.6605  21.9843  21.9843  22.4538  29.2436

          k = 0.2500-0.2500 0.2500 (   595 PWs)   bands (ev):

    -6.3485   6.8630  11.7231  11.7231  21.3074  21.3074  21.7074  28.2297

          k = 0.2500 0.2500 0.2500 (   595 PWs)   bands (ev):

    -6.3485   6.8630  11.7231  11.7231  21.3074  21.3074  21.7074  28.2297

          k = 0.0000 0.5000 0.0000 (   592 PWs)   bands (ev):

    -5.7770   8.9664   9.3301   9.3301  17.9587  23.8070  25.1302  25.1302

          k = 0.7500-0.2500 0.7500 (   602 PWs)   bands (ev):

    -2.0196   2.6536   6.7089   8.5683  19.6069  24.9864  26.3543  26.9022

          k = 0.5000 0.0000 0.5000 (   602 PWs)   bands (ev):

    -3.5830   4.7553   5.8282  10.4472  21.4663  23.5358  25.9188  27.5018

          k =-0.5000-0.5000-0.5000 (   580 PWs)   bands (ev):

    -2.2546   0.0379  10.6605  10.6605  21.9843  21.9843  22.4538  29.2436

          k =-0.7500-0.2500-0.7500 (   602 PWs)   bands (ev):

    -2.0196   2.6536   6.7089   8.5683  19.6069  24.9864  26.3543  26.9022

          k = 0.0000-1.0000 0.0000 (   588 PWs)   bands (ev):

     0.6815   0.6815   7.1390   7.1390  18.2875  18.2875  30.3764  30.3764

          k =-0.2500-0.7500-0.2500 (   602 PWs)   bands (ev):

    -2.0196   2.6536   6.7089   8.5683  19.6069  24.9864  26.3543  26.9022

          k =-0.2500-0.2500-0.2500 (   595 PWs)   bands (ev):

    -6.3485   6.8630  11.7231  11.7231  21.3074  21.3074  21.7074  28.2297

          k =-0.5000 0.0000-0.5000 (   602 PWs)   bands (ev):

    -3.5830   4.7553   5.8282  10.4472  21.4663  23.5358  25.9188  27.5018

          k = 0.2500-0.7500 0.2500 (   602 PWs)   bands (ev):

    -2.0196   2.6536   6.7089   8.5683  19.6069  24.9864  26.3543  26.9022

          k = 0.0000-0.5000 0.0000 (   592 PWs)   bands (ev):

    -5.7770   8.9664   9.3301   9.3301  17.9587  23.8070  25.1302  25.1302

          k =-0.2500-0.2500 0.2500 (   595 PWs)   bands (ev):

    -6.3485   6.8630  11.7231  11.7231  21.3074  21.3074  21.7074  28.2297

          k =-0.5000 0.0000 0.0000 (   592 PWs)   bands (ev):

    -5.7770   8.9664   9.3301   9.3301  17.9587  23.8070  25.1302  25.1302

          k = 0.2500-0.7500 0.7500 (   602 PWs)   bands (ev):

    -2.0196   2.6536   6.7089   8.5683  19.6069  24.9864  26.3543  26.9022

          k = 0.0000-0.5000 0.5000 (   602 PWs)   bands (ev):

    -3.5830   4.7553   5.8282  10.4472  21.4663  23.5358  25.9188  27.5018

          k = 0.0000 0.0000 0.5000 (   592 PWs)   bands (ev):

    -5.7770   8.9664   9.3301   9.3301  17.9587  23.8070  25.1302  25.1302

          k =-0.2500 0.2500 0.2500 (   595 PWs)   bands (ev):

    -6.3485   6.8630  11.7231  11.7231  21.3074  21.3074  21.7074  28.2297

          k = 0.5000-0.5000 1.0000 (   602 PWs)   bands (ev):

    -3.5830   4.7553   5.8282  10.4472  21.4663  23.5358  25.9188  27.5018

          k = 0.2500-0.2500 0.7500 (   602 PWs)   bands (ev):

    -2.0196   2.6536   6.7089   8.5683  19.6069  24.9864  26.3543  26.9022

          k =-0.7500-0.7500-0.2500 (   602 PWs)   bands (ev):

    -2.0196   2.6536   6.7089   8.5683  19.6069  24.9864  26.3543  26.9022

          k =-1.0000-0.5000-0.5000 (   602 PWs)   bands (ev):

    -3.5830   4.7553   5.8282  10.4472  21.4663  23.5358  25.9188  27.5018

          k =-0.2500-1.2500 0.2500 (   602 PWs)   bands (ev):

    -2.0196   2.6536   6.7089   8.5683  19.6069  24.9864  26.3543  26.9022

          k =-0.5000-1.0000 0.0000 (   604 PWs)   bands (ev):

     1.4847   1.4847   5.0985   5.0985  24.1542  24.1542  25.8946  25.8946

          k =-0.5000-0.5000 0.0000 (   602 PWs)   bands (ev):

    -3.5830   4.7553   5.8282  10.4472  21.4663  23.5358  25.9188  27.5018

          k =-0.7500-0.2500-0.2500 (   602 PWs)   bands (ev):

    -2.0196   2.6536   6.7089   8.5683  19.6069  24.9864  26.3543  26.9022

          k = 0.0000-1.0000 0.5000 (   604 PWs)   bands (ev):

     1.4847   1.4847   5.0985   5.0985  24.1542  24.1542  25.8946  25.8946

          k =-0.2500-0.7500 0.2500 (   602 PWs)   bands (ev):

    -2.0196   2.6536   6.7089   8.5683  19.6069  24.9864  26.3543  26.9022

          k = 0.5000 0.5000-0.5000 (   580 PWs)   bands (ev):

    -2.2546   0.0379  10.6605  10.6605  21.9843  21.9843  22.4538  29.2436

          k = 0.2500 0.7500-0.7500 (   602 PWs)   bands (ev):

    -2.0196   2.6536   6.7089   8.5683  19.6069  24.9864  26.3543  26.9022

          k = 1.0000 0.0000 0.0000 (   588 PWs)   bands (ev):

     0.6815   0.6815   7.1390   7.1390  18.2875  18.2875  30.3764  30.3764

          k = 0.7500 0.2500-0.2500 (   602 PWs)   bands (ev):

    -2.0196   2.6536   6.7089   8.5683  19.6069  24.9864  26.3543  26.9022

          k = 0.7500 0.7500-0.2500 (   602 PWs)   bands (ev):

    -2.0196   2.6536   6.7089   8.5683  19.6069  24.9864  26.3543  26.9022

          k = 0.5000 1.0000-0.5000 (   602 PWs)   bands (ev):

    -3.5830   4.7553   5.8282  10.4472  21.4663  23.5358  25.9188  27.5018

          k = 1.2500 0.2500 0.2500 (   602 PWs)   bands (ev):

    -2.0196   2.6536   6.7089   8.5683  19.6069  24.9864  26.3543  26.9022

          k = 1.0000 0.5000 0.0000 (   604 PWs)   bands (ev):

     1.4847   1.4847   5.0985   5.0985  24.1542  24.1542  25.8946  25.8946

          k = 0.0000 0.0000-1.0000 (   588 PWs)   bands (ev):

     0.6815   0.6815   7.1390   7.1390  18.2875  18.2875  30.3764  30.3764

          k =-0.2500 0.2500-1.2500 (   602 PWs)   bands (ev):

    -2.0196   2.6536   6.7089   8.5683  19.6069  24.9864  26.3543  26.9022

          k = 0.5000-0.5000-0.5000 (   580 PWs)   bands (ev):

    -2.2546   0.0379  10.6605  10.6605  21.9843  21.9843  22.4538  29.2436

          k = 0.2500-0.2500-0.7500 (   602 PWs)   bands (ev):

    -2.0196   2.6536   6.7089   8.5683  19.6069  24.9864  26.3543  26.9022

          k = 0.2500 0.2500-0.7500 (   602 PWs)   bands (ev):

    -2.0196   2.6536   6.7089   8.5683  19.6069  24.9864  26.3543  26.9022

          k = 0.0000 0.5000-1.0000 (   604 PWs)   bands (ev):

     1.4847   1.4847   5.0985   5.0985  24.1542  24.1542  25.8946  25.8946

          k = 0.7500-0.2500-0.2500 (   602 PWs)   bands (ev):

    -2.0196   2.6536   6.7089   8.5683  19.6069  24.9864  26.3543  26.9022

          k = 0.5000 0.0000-0.5000 (   602 PWs)   bands (ev):

    -3.5830   4.7553   5.8282  10.4472  21.4663  23.5358  25.9188  27.5018

          k = 0.2500 0.2500-0.2500 (   595 PWs)   bands (ev):

    -6.3485   6.8630  11.7231  11.7231  21.3074  21.3074  21.7074  28.2297

          k = 0.0000 0.5000-0.5000 (   602 PWs)   bands (ev):

    -3.5830   4.7553   5.8282  10.4472  21.4663  23.5358  25.9188  27.5018

          k = 0.7500-0.2500 0.2500 (   602 PWs)   bands (ev):

    -2.0196   2.6536   6.7089   8.5683  19.6069  24.9864  26.3543  26.9022

          k = 0.5000 0.0000 0.0000 (   592 PWs)   bands (ev):

    -5.7770   8.9664   9.3301   9.3301  17.9587  23.8070  25.1302  25.1302

          k = 0.5000 0.5000 0.0000 (   602 PWs)   bands (ev):

    -3.5830   4.7553   5.8282  10.4472  21.4663  23.5358  25.9188  27.5018

          k = 0.2500 0.7500-0.2500 (   602 PWs)   bands (ev):

    -2.0196   2.6536   6.7089   8.5683  19.6069  24.9864  26.3543  26.9022

          k = 1.0000 0.0000 0.5000 (   604 PWs)   bands (ev):

     1.4847   1.4847   5.0985   5.0985  24.1542  24.1542  25.8946  25.8946

          k = 0.7500 0.2500 0.2500 (   602 PWs)   bands (ev):

    -2.0196   2.6536   6.7089   8.5683  19.6069  24.9864  26.3543  26.9022

          k =-0.2500-0.2500-0.7500 (   602 PWs)   bands (ev):

    -2.0196   2.6536   6.7089   8.5683  19.6069  24.9864  26.3543  26.9022

          k =-0.5000 0.0000-1.0000 (   604 PWs)   bands (ev):

     1.4847   1.4847   5.0985   5.0985  24.1542  24.1542  25.8946  25.8946

          k = 0.2500-0.7500-0.2500 (   602 PWs)   bands (ev):

    -2.0196   2.6536   6.7089   8.5683  19.6069  24.9864  26.3543  26.9022

          k = 0.0000-0.5000-0.5000 (   602 PWs)   bands (ev):

    -3.5830   4.7553   5.8282  10.4472  21.4663  23.5358  25.9188  27.5018

          k = 0.0000 0.0000-0.5000 (   592 PWs)   bands (ev):

    -5.7770   8.9664   9.3301   9.3301  17.9587  23.8070  25.1302  25.1302

          k =-0.2500 0.2500-0.7500 (   602 PWs)   bands (ev):

    -2.0196   2.6536   6.7089   8.5683  19.6069  24.9864  26.3543  26.9022

          k = 0.5000-0.5000 0.0000 (   602 PWs)   bands (ev):

    -3.5830   4.7553   5.8282  10.4472  21.4663  23.5358  25.9188  27.5018

          k = 0.2500-0.2500-0.2500 (   595 PWs)   bands (ev):

    -6.3485   6.8630  11.7231  11.7231  21.3074  21.3074  21.7074  28.2297

     highest occupied, lowest unoccupied level (ev):    13.4761   17.9587

!    total energy              =     -22.77391747 Ry
     Harris-Foulkes estimate   =     -22.77391747 Ry
     estimated scf accuracy    <          8.2E-17 Ry

     The total energy is the sum of the following terms:

     one-electron contribution =       8.05016692 Ry
     hartree contribution      =       1.94607471 Ry
     xc contribution           =      -7.13485752 Ry
     ewald contribution        =     -25.63530157 Ry

     convergence has been achieved in  12 iterations

     Forces acting on atoms (cartesian axes, Ry/au):

     atom    1 type  1   force =    -0.00000000   -0.00000000    0.00000000
     atom    2 type  1   force =     0.00000000    0.00000000   -0.00000000

     Total force =     0.000000     Total SCF correction =     0.000000
     SCF correction compared to forces is large: reduce conv_thr to get better values


     Computing stress (Cartesian axis) and pressure

          total   stress  (Ry/bohr**3)                   (kbar)     P=   -3.25
  -0.00002207  -0.00000000  -0.00000000         -3.25     -0.00     -0.00
  -0.00000000  -0.00002207  -0.00000000         -0.00     -3.25     -0.00
  -0.00000000  -0.00000000  -0.00002207         -0.00     -0.00     -3.25


     BFGS Geometry Optimization

     number of scf cycles    =   1
     number of bfgs steps    =   0

     enthalpy new            =     -22.7739174703 Ry

     new trust radius        =       0.0009620854 bohr
     new conv_thr            =            1.0E-15 Ry

     new unit-cell volume =     75.88355 a.u.^3 (    11.24478 Ang^3 )
     density =      3.54738 g/cm^3

CELL_PARAMETERS (alat=  6.72422507)
  -0.499724120   0.000000000   0.499724120
  -0.000000000   0.499724120   0.499724120
  -0.499724120   0.499724120   0.000000000

ATOMIC_POSITIONS (crystal)
C        0.000000000  -0.000000000  -0.000000000
C        0.250000000   0.250000000   0.250000000



     Writing output data file c.save
     NEW-OLD atomic charge density approx. for the potential
     extrapolated charge    7.98677, renormalised to    8.00000

     total cpu time spent up to now is        7.5 secs

     per-process dynamical memory:    15.6 Mb

     Self-consistent Calculation

     iteration #  1     ecut=    60.00 Ry     beta=0.70
     Davidson diagonalization with overlap
     ethr =  1.00E-06,  avg # of iterations =  1.0

     Threshold (ethr) on eigenvalues was too large:
     Diagonalizing with lowered threshold

     Davidson diagonalization with overlap
     ethr =  1.71E-08,  avg # of iterations =  2.6

     total cpu time spent up to now is        8.4 secs

     total energy              =     -22.77391440 Ry
     Harris-Foulkes estimate   =     -22.76495394 Ry
     estimated scf accuracy    <       0.00000126 Ry

     iteration #  2     ecut=    60.00 Ry     beta=0.70
     Davidson diagonalization with overlap
     ethr =  1.57E-08,  avg # of iterations =  3.7

     total cpu time spent up to now is        9.3 secs

     total energy              =     -22.77391697 Ry
     Harris-Foulkes estimate   =     -22.77391704 Ry
     estimated scf accuracy    <       0.00000030 Ry

     iteration #  3     ecut=    60.00 Ry     beta=0.70
     Davidson diagonalization with overlap
     ethr =  3.72E-09,  avg # of iterations =  1.0

     total cpu time spent up to now is        9.6 secs

     total energy              =     -22.77391692 Ry
     Harris-Foulkes estimate   =     -22.77391698 Ry
     estimated scf accuracy    <       0.00000012 Ry

     iteration #  4     ecut=    60.00 Ry     beta=0.70
     Davidson diagonalization with overlap
     ethr =  1.48E-09,  avg # of iterations =  2.0

     total cpu time spent up to now is       10.1 secs

     total energy              =     -22.77391693 Ry
     Harris-Foulkes estimate   =     -22.77391693 Ry
     estimated scf accuracy    <          1.7E-09 Ry

     iteration #  5     ecut=    60.00 Ry     beta=0.70
     Davidson diagonalization with overlap
     ethr =  2.07E-11,  avg # of iterations =  2.7

     total cpu time spent up to now is       10.8 secs

     total energy              =     -22.77391693 Ry
     Harris-Foulkes estimate   =     -22.77391693 Ry
     estimated scf accuracy    <          1.4E-10 Ry

     iteration #  6     ecut=    60.00 Ry     beta=0.70
     Davidson diagonalization with overlap
     ethr =  1.69E-12,  avg # of iterations =  2.2

     total cpu time spent up to now is       11.3 secs

     total energy              =     -22.77391693 Ry
     Harris-Foulkes estimate   =     -22.77391693 Ry
     estimated scf accuracy    <          9.7E-12 Ry

     iteration #  7     ecut=    60.00 Ry     beta=0.70
     Davidson diagonalization with overlap
     ethr =  1.21E-13,  avg # of iterations =  2.5

     total cpu time spent up to now is       12.0 secs

     total energy              =     -22.77391693 Ry
     Harris-Foulkes estimate   =     -22.77391693 Ry
     estimated scf accuracy    <          4.5E-14 Ry

     iteration #  8     ecut=    60.00 Ry     beta=0.70
     Davidson diagonalization with overlap
     ethr =  1.00E-13,  avg # of iterations =  1.0

     total cpu time spent up to now is       12.3 secs

     End of self-consistent calculation

          k = 0.0000 0.0000 0.0000 (   609 PWs)   bands (ev):

    -8.0628  13.5060  13.5060  13.5060  19.1298  19.1298  19.1298  27.0485

          k =-0.2501 0.2501-0.2501 (   595 PWs)   bands (ev):

    -6.3387   6.8851  11.7501  11.7501  21.3451  21.3451  21.7529  28.2867

          k = 0.5003-0.5003 0.5003 (   580 PWs)   bands (ev):

    -2.2373   0.0494  10.6861  10.6861  22.0211  22.0211  22.5065  29.2886

          k = 0.2501-0.2501 0.2501 (   595 PWs)   bands (ev):

    -6.3387   6.8851  11.7501  11.7501  21.3451  21.3451  21.7529  28.2867

          k = 0.2501 0.2501 0.2501 (   595 PWs)   bands (ev):

    -6.3387   6.8851  11.7501  11.7501  21.3451  21.3451  21.7529  28.2867

          k = 0.0000 0.5003 0.0000 (   592 PWs)   bands (ev):

    -5.7666   8.9944   9.3530   9.3530  17.9929  23.8483  25.1750  25.1750

          k = 0.7504-0.2501 0.7504 (   602 PWs)   bands (ev):

    -2.0041   2.6716   6.7301   8.5903  19.6421  25.0290  26.4000  26.9542

          k = 0.5003 0.0000 0.5003 (   602 PWs)   bands (ev):

    -3.5698   4.7770   5.8466  10.4723  21.5048  23.5771  25.9663  27.5563

          k =-0.5003-0.5003-0.5003 (   580 PWs)   bands (ev):

    -2.2373   0.0494  10.6861  10.6861  22.0211  22.0211  22.5065  29.2886

          k =-0.7504-0.2501-0.7504 (   602 PWs)   bands (ev):

    -2.0041   2.6716   6.7301   8.5903  19.6421  25.0290  26.4000  26.9542

          k =-0.0000-1.0006-0.0000 (   588 PWs)   bands (ev):

     0.6998   0.6998   7.1588   7.1588  18.3211  18.3211  30.4312  30.4312

          k =-0.2501-0.7504-0.2501 (   602 PWs)   bands (ev):

    -2.0041   2.6716   6.7301   8.5903  19.6421  25.0290  26.4000  26.9542

          k =-0.2501-0.2501-0.2501 (   595 PWs)   bands (ev):

    -6.3387   6.8851  11.7501  11.7501  21.3451  21.3451  21.7529  28.2867

          k =-0.5003-0.0000-0.5003 (   602 PWs)   bands (ev):

    -3.5698   4.7770   5.8466  10.4723  21.5048  23.5771  25.9663  27.5563

          k = 0.2501-0.7504 0.2501 (   602 PWs)   bands (ev):

    -2.0041   2.6716   6.7301   8.5903  19.6421  25.0290  26.4000  26.9542

          k =-0.0000-0.5003-0.0000 (   592 PWs)   bands (ev):

    -5.7666   8.9944   9.3530   9.3530  17.9929  23.8483  25.1750  25.1750

          k =-0.2501-0.2501 0.2501 (   595 PWs)   bands (ev):

    -6.3387   6.8851  11.7501  11.7501  21.3451  21.3451  21.7529  28.2867

          k =-0.5003-0.0000-0.0000 (   592 PWs)   bands (ev):

    -5.7666   8.9944   9.3530   9.3530  17.9929  23.8483  25.1750  25.1750

          k = 0.2501-0.7504 0.7504 (   602 PWs)   bands (ev):

    -2.0041   2.6716   6.7301   8.5903  19.6421  25.0290  26.4000  26.9542

          k = 0.0000-0.5003 0.5003 (   602 PWs)   bands (ev):

    -3.5698   4.7770   5.8466  10.4723  21.5048  23.5771  25.9663  27.5563

          k = 0.0000 0.0000 0.5003 (   592 PWs)   bands (ev):

    -5.7666   8.9944   9.3530   9.3530  17.9929  23.8483  25.1750  25.1750

          k =-0.2501 0.2501 0.2501 (   595 PWs)   bands (ev):

    -6.3387   6.8851  11.7501  11.7501  21.3451  21.3451  21.7529  28.2867

          k = 0.5003-0.5003 1.0006 (   602 PWs)   bands (ev):

    -3.5698   4.7770   5.8466  10.4723  21.5048  23.5771  25.9663  27.5563

          k = 0.2501-0.2501 0.7504 (   602 PWs)   bands (ev):

    -2.0041   2.6716   6.7301   8.5903  19.6421  25.0290  26.4000  26.9542

          k =-0.7504-0.7504-0.2501 (   602 PWs)   bands (ev):

    -2.0041   2.6716   6.7301   8.5903  19.6421  25.0290  26.4000  26.9542

          k =-1.0006-0.5003-0.5003 (   602 PWs)   bands (ev):

    -3.5698   4.7770   5.8466  10.4723  21.5048  23.5771  25.9663  27.5563

          k =-0.2501-1.2507 0.2501 (   602 PWs)   bands (ev):

    -2.0041   2.6716   6.7301   8.5903  19.6421  25.0290  26.4000  26.9542

          k =-0.5003-1.0006-0.0000 (   604 PWs)   bands (ev):

     1.5057   1.5057   5.1141   5.1141  24.1916  24.1916  25.9460  25.9460

          k =-0.5003-0.5003-0.0000 (   602 PWs)   bands (ev):

    -3.5698   4.7770   5.8466  10.4723  21.5048  23.5771  25.9663  27.5563

          k =-0.7504-0.2501-0.2501 (   602 PWs)   bands (ev):

    -2.0041   2.6716   6.7301   8.5903  19.6421  25.0290  26.4000  26.9542

          k =-0.0000-1.0006 0.5003 (   604 PWs)   bands (ev):

     1.5057   1.5057   5.1141   5.1141  24.1916  24.1916  25.9460  25.9460

          k =-0.2501-0.7504 0.2501 (   602 PWs)   bands (ev):

    -2.0041   2.6716   6.7301   8.5903  19.6421  25.0290  26.4000  26.9542

          k = 0.5003 0.5003-0.5003 (   580 PWs)   bands (ev):

    -2.2373   0.0494  10.6861  10.6861  22.0211  22.0211  22.5065  29.2886

          k = 0.2501 0.7504-0.7504 (   602 PWs)   bands (ev):

    -2.0041   2.6716   6.7301   8.5903  19.6421  25.0290  26.4000  26.9542

          k = 1.0006 0.0000 0.0000 (   588 PWs)   bands (ev):

     0.6998   0.6998   7.1588   7.1588  18.3211  18.3211  30.4312  30.4312

          k = 0.7504 0.2501-0.2501 (   602 PWs)   bands (ev):

    -2.0041   2.6716   6.7301   8.5903  19.6421  25.0290  26.4000  26.9542

          k = 0.7504 0.7504-0.2501 (   602 PWs)   bands (ev):

    -2.0041   2.6716   6.7301   8.5903  19.6421  25.0290  26.4000  26.9542

          k = 0.5003 1.0006-0.5003 (   602 PWs)   bands (ev):

    -3.5698   4.7770   5.8466  10.4723  21.5048  23.5771  25.9663  27.5563

          k = 1.2507 0.2501 0.2501 (   602 PWs)   bands (ev):

    -2.0041   2.6716   6.7301   8.5903  19.6421  25.0290  26.4000  26.9542

          k = 1.0006 0.5003 0.0000 (   604 PWs)   bands (ev):

     1.5057   1.5057   5.1141   5.1141  24.1916  24.1916  25.9460  25.9460

          k =-0.0000-0.0000-1.0006 (   588 PWs)   bands (ev):

     0.6998   0.6998   7.1588   7.1588  18.3211  18.3211  30.4312  30.4312

          k =-0.2501 0.2501-1.2507 (   602 PWs)   bands (ev):

    -2.0041   2.6716   6.7301   8.5903  19.6421  25.0290  26.4000  26.9542

          k = 0.5003-0.5003-0.5003 (   580 PWs)   bands (ev):

    -2.2373   0.0494  10.6861  10.6861  22.0211  22.0211  22.5065  29.2886

          k = 0.2501-0.2501-0.7504 (   602 PWs)   bands (ev):

    -2.0041   2.6716   6.7301   8.5903  19.6421  25.0290  26.4000  26.9542

          k = 0.2501 0.2501-0.7504 (   602 PWs)   bands (ev):

    -2.0041   2.6716   6.7301   8.5903  19.6421  25.0290  26.4000  26.9542

          k =-0.0000 0.5003-1.0006 (   604 PWs)   bands (ev):

     1.5057   1.5057   5.1141   5.1141  24.1916  24.1916  25.9460  25.9460

          k = 0.7504-0.2501-0.2501 (   602 PWs)   bands (ev):

    -2.0041   2.6716   6.7301   8.5903  19.6421  25.0290  26.4000  26.9542

          k = 0.5003 0.0000-0.5003 (   602 PWs)   bands (ev):

    -3.5698   4.7770   5.8466  10.4723  21.5048  23.5771  25.9663  27.5563

          k = 0.2501 0.2501-0.2501 (   595 PWs)   bands (ev):

    -6.3387   6.8851  11.7501  11.7501  21.3451  21.3451  21.7529  28.2867

          k =-0.0000 0.5003-0.5003 (   602 PWs)   bands (ev):

    -3.5698   4.7770   5.8466  10.4723  21.5048  23.5771  25.9663  27.5563

          k = 0.7504-0.2501 0.2501 (   602 PWs)   bands (ev):

    -2.0041   2.6716   6.7301   8.5903  19.6421  25.0290  26.4000  26.9542

          k = 0.5003 0.0000 0.0000 (   592 PWs)   bands (ev):

    -5.7666   8.9944   9.3530   9.3530  17.9929  23.8483  25.1750  25.1750

          k = 0.5003 0.5003 0.0000 (   602 PWs)   bands (ev):

    -3.5698   4.7770   5.8466  10.4723  21.5048  23.5771  25.9663  27.5563

          k = 0.2501 0.7504-0.2501 (   602 PWs)   bands (ev):

    -2.0041   2.6716   6.7301   8.5903  19.6421  25.0290  26.4000  26.9542

          k = 1.0006 0.0000 0.5003 (   604 PWs)   bands (ev):

     1.5057   1.5057   5.1141   5.1141  24.1916  24.1916  25.9460  25.9460

          k = 0.7504 0.2501 0.2501 (   602 PWs)   bands (ev):

    -2.0041   2.6716   6.7301   8.5903  19.6421  25.0290  26.4000  26.9542

          k =-0.2501-0.2501-0.7504 (   602 PWs)   bands (ev):

    -2.0041   2.6716   6.7301   8.5903  19.6421  25.0290  26.4000  26.9542

          k =-0.5003-0.0000-1.0006 (   604 PWs)   bands (ev):

     1.5057   1.5057   5.1141   5.1141  24.1916  24.1916  25.9460  25.9460

          k = 0.2501-0.7504-0.2501 (   602 PWs)   bands (ev):

    -2.0041   2.6716   6.7301   8.5903  19.6421  25.0290  26.4000  26.9542

          k =-0.0000-0.5003-0.5003 (   602 PWs)   bands (ev):

    -3.5698   4.7770   5.8466  10.4723  21.5048  23.5771  25.9663  27.5563

          k =-0.0000-0.0000-0.5003 (   592 PWs)   bands (ev):

    -5.7666   8.9944   9.3530   9.3530  17.9929  23.8483  25.1750  25.1750

          k =-0.2501 0.2501-0.7504 (   602 PWs)   bands (ev):

    -2.0041   2.6716   6.7301   8.5903  19.6421  25.0290  26.4000  26.9542

          k = 0.5003-0.5003 0.0000 (   602 PWs)   bands (ev):

    -3.5698   4.7770   5.8466  10.4723  21.5048  23.5771  25.9663  27.5563

          k = 0.2501-0.2501-0.2501 (   595 PWs)   bands (ev):

    -6.3387   6.8851  11.7501  11.7501  21.3451  21.3451  21.7529  28.2867

     highest occupied, lowest unoccupied level (ev):    13.5060   17.9929

!    total energy              =     -22.77391693 Ry
     Harris-Foulkes estimate   =     -22.77391693 Ry
     estimated scf accuracy    <          3.0E-16 Ry

     The total energy is the sum of the following terms:

     one-electron contribution =       8.06867742 Ry
     hartree contribution      =       1.94442052 Ry
     xc contribution           =      -7.13756096 Ry
     ewald contribution        =     -25.64945392 Ry

     convergence has been achieved in   8 iterations

     Forces acting on atoms (cartesian axes, Ry/au):

     atom    1 type  1   force =     0.00000000    0.00000000   -0.00000000
     atom    2 type  1   force =    -0.00000000   -0.00000000    0.00000000

     Total force =     0.000000     Total SCF correction =     0.000000


     Computing stress (Cartesian axis) and pressure

          total   stress  (Ry/bohr**3)                   (kbar)     P=    4.52
   0.00003072   0.00000000   0.00000000          4.52      0.00      0.00
   0.00000000   0.00003072   0.00000000          0.00      4.52      0.00
   0.00000000   0.00000000   0.00003072          0.00      0.00      4.52


     number of scf cycles    =   2
     number of bfgs steps    =   1

     enthalpy old            =     -22.7739174703 Ry
     enthalpy new            =     -22.7739169306 Ry

     CASE: enthalpy_new > enthalpy_old

     new trust radius        =       0.0004026529 bohr
     new conv_thr            =            1.0E-15 Ry

     new unit-cell volume =     75.95664 a.u.^3 (    11.25561 Ang^3 )
     density =      3.54396 g/cm^3

CELL_PARAMETERS (alat=  6.72422507)
  -0.499884507   0.000000000   0.499884507
  -0.000000000   0.499884507   0.499884507
  -0.499884507   0.499884507   0.000000000

ATOMIC_POSITIONS (crystal)
C        0.000000000  -0.000000000  -0.000000000
C        0.250000000   0.250000000   0.250000000



     Writing output data file c.save
     NEW-OLD atomic charge density approx. for the potential
     extrapolated charge    8.00768, renormalised to    8.00000

     total cpu time spent up to now is       12.4 secs

     per-process dynamical memory:    17.5 Mb

     Self-consistent Calculation

     iteration #  1     ecut=    60.00 Ry     beta=0.70
     Davidson diagonalization with overlap
     ethr =  1.00E-06,  avg # of iterations =  1.0

     Threshold (ethr) on eigenvalues was too large:
     Diagonalizing with lowered threshold

     Davidson diagonalization with overlap
     ethr =  5.74E-09,  avg # of iterations =  2.6

     total cpu time spent up to now is       13.2 secs

     total energy              =     -22.77391720 Ry
     Harris-Foulkes estimate   =     -22.77911933 Ry
     estimated scf accuracy    <       0.00000042 Ry

     iteration #  2     ecut=    60.00 Ry     beta=0.70
     Davidson diagonalization with overlap
     ethr =  5.27E-09,  avg # of iterations =  3.7

     total cpu time spent up to now is       14.1 secs

     total energy              =     -22.77391807 Ry
     Harris-Foulkes estimate   =     -22.77391809 Ry
     estimated scf accuracy    <       0.00000010 Ry

     iteration #  3     ecut=    60.00 Ry     beta=0.70
     Davidson diagonalization with overlap
     ethr =  1.26E-09,  avg # of iterations =  1.0

     total cpu time spent up to now is       14.5 secs

     total energy              =     -22.77391805 Ry
     Harris-Foulkes estimate   =     -22.77391807 Ry
     estimated scf accuracy    <       0.00000004 Ry

     iteration #  4     ecut=    60.00 Ry     beta=0.70
     Davidson diagonalization with overlap
     ethr =  5.03E-10,  avg # of iterations =  2.0

     total cpu time spent up to now is       15.0 secs

     total energy              =     -22.77391805 Ry
     Harris-Foulkes estimate   =     -22.77391805 Ry
     estimated scf accuracy    <          5.7E-10 Ry

     iteration #  5     ecut=    60.00 Ry     beta=0.70
     Davidson diagonalization with overlap
     ethr =  7.16E-12,  avg # of iterations =  2.6

     total cpu time spent up to now is       15.6 secs

     total energy              =     -22.77391805 Ry
     Harris-Foulkes estimate   =     -22.77391805 Ry
     estimated scf accuracy    <          4.6E-11 Ry

     iteration #  6     ecut=    60.00 Ry     beta=0.70
     Davidson diagonalization with overlap
     ethr =  5.76E-13,  avg # of iterations =  2.2

     total cpu time spent up to now is       16.2 secs

     total energy              =     -22.77391805 Ry
     Harris-Foulkes estimate   =     -22.77391805 Ry
     estimated scf accuracy    <          3.4E-12 Ry

     iteration #  7     ecut=    60.00 Ry     beta=0.70
     Davidson diagonalization with overlap
     ethr =  1.00E-13,  avg # of iterations =  1.9

     total cpu time spent up to now is       16.7 secs

     total energy              =     -22.77391805 Ry
     Harris-Foulkes estimate   =     -22.77391805 Ry
     estimated scf accuracy    <          2.0E-14 Ry

     iteration #  8     ecut=    60.00 Ry     beta=0.70
     Davidson diagonalization with overlap
     ethr =  1.00E-13,  avg # of iterations =  1.0

     total cpu time spent up to now is       17.0 secs

     End of self-consistent calculation

          k = 0.0000 0.0000 0.0000 (   609 PWs)   bands (ev):

    -8.0673  13.4886  13.4886  13.4886  19.1098  19.1098  19.1098  27.0089

          k =-0.2501 0.2501-0.2501 (   595 PWs)   bands (ev):

    -6.3444   6.8723  11.7344  11.7344  21.3232  21.3232  21.7265  28.2535

          k = 0.5001-0.5001 0.5001 (   580 PWs)   bands (ev):

    -2.2474   0.0427  10.6712  10.6712  21.9997  21.9997  22.4759  29.2625

          k = 0.2501-0.2501 0.2501 (   595 PWs)   bands (ev):

    -6.3444   6.8723  11.7344  11.7344  21.3232  21.3232  21.7265  28.2535

          k = 0.2501 0.2501 0.2501 (   595 PWs)   bands (ev):

    -6.3444   6.8723  11.7344  11.7344  21.3232  21.3232  21.7265  28.2535

          k = 0.0000 0.5001 0.0000 (   592 PWs)   bands (ev):

    -5.7727   8.9781   9.3397   9.3397  17.9730  23.8243  25.1489  25.1489

          k = 0.7502-0.2501 0.7502 (   602 PWs)   bands (ev):

    -2.0131   2.6611   6.7178   8.5775  19.6216  25.0042  26.3734  26.9239

          k = 0.5001 0.0000 0.5001 (   602 PWs)   bands (ev):

    -3.5775   4.7644   5.8359  10.4577  21.4824  23.5531  25.9387  27.5246

          k =-0.5001-0.5001-0.5001 (   580 PWs)   bands (ev):

    -2.2474   0.0427  10.6712  10.6712  21.9997  21.9997  22.4759  29.2625

          k =-0.7502-0.2501-0.7502 (   602 PWs)   bands (ev):

    -2.0131   2.6611   6.7178   8.5775  19.6216  25.0042  26.3734  26.9239

          k =-0.0000-1.0002-0.0000 (   588 PWs)   bands (ev):

     0.6891   0.6891   7.1473   7.1473  18.3016  18.3016  30.3993  30.3993

          k =-0.2501-0.7502-0.2501 (   602 PWs)   bands (ev):

    -2.0131   2.6611   6.7178   8.5775  19.6216  25.0042  26.3734  26.9239

          k =-0.2501-0.2501-0.2501 (   595 PWs)   bands (ev):

    -6.3444   6.8723  11.7344  11.7344  21.3232  21.3232  21.7265  28.2535

          k =-0.5001-0.0000-0.5001 (   602 PWs)   bands (ev):

    -3.5775   4.7644   5.8359  10.4577  21.4824  23.5531  25.9387  27.5246

          k = 0.2501-0.7502 0.2501 (   602 PWs)   bands (ev):

    -2.0131   2.6611   6.7178   8.5775  19.6216  25.0042  26.3734  26.9239

          k =-0.0000-0.5001-0.0000 (   592 PWs)   bands (ev):

    -5.7727   8.9781   9.3397   9.3397  17.9730  23.8243  25.1489  25.1489

          k =-0.2501-0.2501 0.2501 (   595 PWs)   bands (ev):

    -6.3444   6.8723  11.7344  11.7344  21.3232  21.3232  21.7265  28.2535

          k =-0.5001-0.0000-0.0000 (   592 PWs)   bands (ev):

    -5.7727   8.9781   9.3397   9.3397  17.9730  23.8243  25.1489  25.1489

          k = 0.2501-0.7502 0.7502 (   602 PWs)   bands (ev):

    -2.0131   2.6611   6.7178   8.5775  19.6216  25.0042  26.3734  26.9239

          k = 0.0000-0.5001 0.5001 (   602 PWs)   bands (ev):

    -3.5775   4.7644   5.8359  10.4577  21.4824  23.5531  25.9387  27.5246

          k = 0.0000 0.0000 0.5001 (   592 PWs)   bands (ev):

    -5.7727   8.9781   9.3397   9.3397  17.9730  23.8243  25.1489  25.1489

          k =-0.2501 0.2501 0.2501 (   595 PWs)   bands (ev):

    -6.3444   6.8723  11.7344  11.7344  21.3232  21.3232  21.7265  28.2535

          k = 0.5001-0.5001 1.0002 (   602 PWs)   bands (ev):

    -3.5775   4.7644   5.8359  10.4577  21.4824  23.5531  25.9387  27.5246

          k = 0.2501-0.2501 0.7502 (   602 PWs)   bands (ev):

    -2.0131   2.6611   6.7178   8.5775  19.6216  25.0042  26.3734  26.9239

          k =-0.7502-0.7502-0.2501 (   602 PWs)   bands (ev):

    -2.0131   2.6611   6.7178   8.5775  19.6216  25.0042  26.3734  26.9239

          k =-1.0002-0.5001-0.5001 (   602 PWs)   bands (ev):

    -3.5775   4.7644   5.8359  10.4577  21.4824  23.5531  25.9387  27.5246

          k =-0.2501-1.2503 0.2501 (   602 PWs)   bands (ev):

    -2.0131   2.6611   6.7178   8.5775  19.6216  25.0042  26.3734  26.9239

          k =-0.5001-1.0002-0.0000 (   604 PWs)   bands (ev):

     1.4935   1.4935   5.1050   5.1050  24.1698  24.1698  25.9161  25.9161

          k =-0.5001-0.5001-0.0000 (   602 PWs)   bands (ev):

    -3.5775   4.7644   5.8359  10.4577  21.4824  23.5531  25.9387  27.5246

          k =-0.7502-0.2501-0.2501 (   602 PWs)   bands (ev):

    -2.0131   2.6611   6.7178   8.5775  19.6216  25.0042  26.3734  26.9239

          k =-0.0000-1.0002 0.5001 (   604 PWs)   bands (ev):

     1.4935   1.4935   5.1050   5.1050  24.1698  24.1698  25.9161  25.9161

          k =-0.2501-0.7502 0.2501 (   602 PWs)   bands (ev):

    -2.0131   2.6611   6.7178   8.5775  19.6216  25.0042  26.3734  26.9239

          k = 0.5001 0.5001-0.5001 (   580 PWs)   bands (ev):

    -2.2474   0.0427  10.6712  10.6712  21.9997  21.9997  22.4759  29.2625

          k = 0.2501 0.7502-0.7502 (   602 PWs)   bands (ev):

    -2.0131   2.6611   6.7178   8.5775  19.6216  25.0042  26.3734  26.9239

          k = 1.0002 0.0000 0.0000 (   588 PWs)   bands (ev):

     0.6891   0.6891   7.1473   7.1473  18.3016  18.3016  30.3993  30.3993

          k = 0.7502 0.2501-0.2501 (   602 PWs)   bands (ev):

    -2.0131   2.6611   6.7178   8.5775  19.6216  25.0042  26.3734  26.9239

          k = 0.7502 0.7502-0.2501 (   602 PWs)   bands (ev):

    -2.0131   2.6611   6.7178   8.5775  19.6216  25.0042  26.3734  26.9239

          k = 0.5001 1.0002-0.5001 (   602 PWs)   bands (ev):

    -3.5775   4.7644   5.8359  10.4577  21.4824  23.5531  25.9387  27.5246

          k = 1.2503 0.2501 0.2501 (   602 PWs)   bands (ev):

    -2.0131   2.6611   6.7178   8.5775  19.6216  25.0042  26.3734  26.9239

          k = 1.0002 0.5001 0.0000 (   604 PWs)   bands (ev):

     1.4935   1.4935   5.1050   5.1050  24.1698  24.1698  25.9161  25.9161

          k =-0.0000-0.0000-1.0002 (   588 PWs)   bands (ev):

     0.6891   0.6891   7.1473   7.1473  18.3016  18.3016  30.3993  30.3993

          k =-0.2501 0.2501-1.2503 (   602 PWs)   bands (ev):

    -2.0131   2.6611   6.7178   8.5775  19.6216  25.0042  26.3734  26.9239

          k = 0.5001-0.5001-0.5001 (   580 PWs)   bands (ev):

    -2.2474   0.0427  10.6712  10.6712  21.9997  21.9997  22.4759  29.2625

          k = 0.2501-0.2501-0.7502 (   602 PWs)   bands (ev):

    -2.0131   2.6611   6.7178   8.5775  19.6216  25.0042  26.3734  26.9239

          k = 0.2501 0.2501-0.7502 (   602 PWs)   bands (ev):

    -2.0131   2.6611   6.7178   8.5775  19.6216  25.0042  26.3734  26.9239

          k =-0.0000 0.5001-1.0002 (   604 PWs)   bands (ev):

     1.4935   1.4935   5.1050   5.1050  24.1698  24.1698  25.9161  25.9161

          k = 0.7502-0.2501-0.2501 (   602 PWs)   bands (ev):

    -2.0131   2.6611   6.7178   8.5775  19.6216  25.0042  26.3734  26.9239

          k = 0.5001 0.0000-0.5001 (   602 PWs)   bands (ev):

    -3.5775   4.7644   5.8359  10.4577  21.4824  23.5531  25.9387  27.5246

          k = 0.2501 0.2501-0.2501 (   595 PWs)   bands (ev):

    -6.3444   6.8723  11.7344  11.7344  21.3232  21.3232  21.7265  28.2535

          k =-0.0000 0.5001-0.5001 (   602 PWs)   bands (ev):

    -3.5775   4.7644   5.8359  10.4577  21.4824  23.5531  25.9387  27.5246

          k = 0.7502-0.2501 0.2501 (   602 PWs)   bands (ev):

    -2.0131   2.6611   6.7178   8.5775  19.6216  25.0042  26.3734  26.9239

          k = 0.5001 0.0000 0.0000 (   592 PWs)   bands (ev):

    -5.7727   8.9781   9.3397   9.3397  17.9730  23.8243  25.1489  25.1489

          k = 0.5001 0.5001 0.0000 (   602 PWs)   bands (ev):

    -3.5775   4.7644   5.8359  10.4577  21.4824  23.5531  25.9387  27.5246

          k = 0.2501 0.7502-0.2501 (   602 PWs)   bands (ev):

    -2.0131   2.6611   6.7178   8.5775  19.6216  25.0042  26.3734  26.9239

          k = 1.0002 0.0000 0.5001 (   604 PWs)   bands (ev):

     1.4935   1.4935   5.1050   5.1050  24.1698  24.1698  25.9161  25.9161

          k = 0.7502 0.2501 0.2501 (   602 PWs)   bands (ev):

    -2.0131   2.6611   6.7178   8.5775  19.6216  25.0042  26.3734  26.9239

          k =-0.2501-0.2501-0.7502 (   602 PWs)   bands (ev):

    -2.0131   2.6611   6.7178   8.5775  19.6216  25.0042  26.3734  26.9239

          k =-0.5001-0.0000-1.0002 (   604 PWs)   bands (ev):

     1.4935   1.4935   5.1050   5.1050  24.1698  24.1698  25.9161  25.9161

          k = 0.2501-0.7502-0.2501 (   602 PWs)   bands (ev):

    -2.0131   2.6611   6.7178   8.5775  19.6216  25.0042  26.3734  26.9239

          k =-0.0000-0.5001-0.5001 (   602 PWs)   bands (ev):

    -3.5775   4.7644   5.8359  10.4577  21.4824  23.5531  25.9387  27.5246

          k =-0.0000-0.0000-0.5001 (   592 PWs)   bands (ev):

    -5.7727   8.9781   9.3397   9.3397  17.9730  23.8243  25.1489  25.1489

          k =-0.2501 0.2501-0.7502 (   602 PWs)   bands (ev):

    -2.0131   2.6611   6.7178   8.5775  19.6216  25.0042  26.3734  26.9239

          k = 0.5001-0.5001 0.0000 (   602 PWs)   bands (ev):

    -3.5775   4.7644   5.8359  10.4577  21.4824  23.5531  25.9387  27.5246

          k = 0.2501-0.2501-0.2501 (   595 PWs)   bands (ev):

    -6.3444   6.8723  11.7344  11.7344  21.3232  21.3232  21.7265  28.2535

     highest occupied, lowest unoccupied level (ev):    13.4886   17.9730

!    total energy              =     -22.77391805 Ry
     Harris-Foulkes estimate   =     -22.77391805 Ry
     estimated scf accuracy    <          2.8E-16 Ry

     The total energy is the sum of the following terms:

     one-electron contribution =       8.05791299 Ry
     hartree contribution      =       1.94538212 Ry
     xc contribution           =      -7.13598880 Ry
     ewald contribution        =     -25.64122436 Ry

     convergence has been achieved in   8 iterations

     Forces acting on atoms (cartesian axes, Ry/au):

     atom    1 type  1   force =     0.00000000    0.00000000   -0.00000000
     atom    2 type  1   force =    -0.00000000   -0.00000000    0.00000000

     Total force =     0.000000     Total SCF correction =     0.000000


     Computing stress (Cartesian axis) and pressure

          total   stress  (Ry/bohr**3)                   (kbar)     P=   -0.00
  -0.00000001   0.00000000   0.00000000         -0.00      0.00      0.00
   0.00000000  -0.00000001   0.00000000          0.00     -0.00      0.00
   0.00000000   0.00000000  -0.00000001          0.00      0.00     -0.00


     bfgs converged in   3 scf cycles and   1 bfgs steps
     (criteria: energy <  1.0E-04 Ry, force <  1.0E-03Ry/Bohr, cell <  5.0E-01kbar)

     End of BFGS Geometry Optimization

     Final enthalpy =     -22.7739180520 Ry
Begin final coordinates
     new unit-cell volume =     75.95664 a.u.^3 (    11.25561 Ang^3 )
     density =      3.54396 g/cm^3

CELL_PARAMETERS (alat=  6.72422507)
  -0.499884507   0.000000000   0.499884507
  -0.000000000   0.499884507   0.499884507
  -0.499884507   0.499884507   0.000000000

ATOMIC_POSITIONS (crystal)
C        0.000000000  -0.000000000  -0.000000000
C        0.250000000   0.250000000   0.250000000
End final coordinates



     A final scf calculation at the relaxed structure.
     The G-vectors are recalculated for the final unit cell
     Results may differ from those at the preceding step.
 
     Parallelization info
     --------------------
     sticks:   dense  smooth     PW     G-vecs:    dense   smooth      PW
     Min           9       9      3                  116      116      23
     Max          10      10      4                  120      120      27
     Sum         367     367    121                 4693     4693     941
 


     bravais-lattice index     =            2
     lattice parameter (alat)  =       6.7242  a.u.
     unit-cell volume          =      75.9566 (a.u.)^3
     number of atoms/cell      =            2
     number of atomic types    =            1
     number of electrons       =         8.00
     number of Kohn-Sham states=            8
     kinetic-energy cutoff     =      60.0000  Ry
     charge density cutoff     =     240.0000  Ry
     convergence threshold     =      1.0E-15
     mixing beta               =       0.7000
     number of iterations used =            8  local-TF  mixing
     Exchange-correlation      = PBE ( 1  4  3  4 0 0)

     celldm(1)=   6.724225  celldm(2)=   0.000000  celldm(3)=   0.000000
     celldm(4)=   0.000000  celldm(5)=   0.000000  celldm(6)=   0.000000

     crystal axes: (cart. coord. in units of alat)
               a(1) = (  -0.499885   0.000000   0.499885 )  
               a(2) = (  -0.000000   0.499885   0.499885 )  
               a(3) = (  -0.499885   0.499885   0.000000 )  

     reciprocal axes: (cart. coord. in units 2 pi/alat)
               b(1) = ( -1.000231 -1.000231  1.000231 )  
               b(2) = (  1.000231  1.000231  1.000231 )  
               b(3) = ( -1.000231  1.000231 -1.000231 )  


     PseudoPot. # 1 for C  read from file:
     ../C_ONCV_PBE-1.0.upf
     MD5 check sum: 40f8c33130f0afa4272e9dcc1c4fb0df
     Pseudo is Norm-conserving, Zval =  4.0
     Generated using ONCVPSP code by D. R. Hamann
     Using radial grid of  602 points,  4 beta functions with: 
                l(1) =   0
                l(2) =   0
                l(3) =   1
                l(4) =   1

     atomic species   valence    mass     pseudopotential
        C              4.00    12.01100     C ( 1.00)

     No symmetry found



   Cartesian axes

     site n.     atom                  positions (alat units)
         1           C   tau(   1) = (  -0.0000000  -0.0000000   0.0000000  )
         2           C   tau(   2) = (  -0.2499423   0.2499423   0.2499423  )

     number of k points=    64
                       cart. coord. in units 2pi/alat
        k(    1) = (   0.0000000   0.0000000   0.0000000), wk =   0.0312500
        k(    2) = (  -0.2500578   0.2500578  -0.2500578), wk =   0.0312500
        k(    3) = (   0.5001155  -0.5001155   0.5001155), wk =   0.0312500
        k(    4) = (   0.2500578  -0.2500578   0.2500578), wk =   0.0312500
        k(    5) = (   0.2500578   0.2500578   0.2500578), wk =   0.0312500
        k(    6) = (   0.0000000   0.5001155   0.0000000), wk =   0.0312500
        k(    7) = (   0.7501733  -0.2500578   0.7501733), wk =   0.0312500
        k(    8) = (   0.5001155   0.0000000   0.5001155), wk =   0.0312500
        k(    9) = (  -0.5001155  -0.5001155  -0.5001155), wk =   0.0312500
        k(   10) = (  -0.7501733  -0.2500578  -0.7501733), wk =   0.0312500
        k(   11) = (  -0.0000000  -1.0002310  -0.0000000), wk =   0.0312500
        k(   12) = (  -0.2500578  -0.7501733  -0.2500578), wk =   0.0312500
        k(   13) = (  -0.2500578  -0.2500578  -0.2500578), wk =   0.0312500
        k(   14) = (  -0.5001155  -0.0000000  -0.5001155), wk =   0.0312500
        k(   15) = (   0.2500578  -0.7501733   0.2500578), wk =   0.0312500
        k(   16) = (  -0.0000000  -0.5001155  -0.0000000), wk =   0.0312500
        k(   17) = (  -0.2500578  -0.2500578   0.2500578), wk =   0.0312500
        k(   18) = (  -0.5001155  -0.0000000  -0.0000000), wk =   0.0312500
        k(   19) = (   0.2500578  -0.7501733   0.7501733), wk =   0.0312500
        k(   20) = (   0.0000000  -0.5001155   0.5001155), wk =   0.0312500
        k(   21) = (   0.0000000   0.0000000   0.5001155), wk =   0.0312500
        k(   22) = (  -0.2500578   0.2500578   0.2500578), wk =   0.0312500
        k(   23) = (   0.5001155  -0.5001155   1.0002310), wk =   0.0312500
        k(   24) = (   0.2500578  -0.2500578   0.7501733), wk =   0.0312500
        k(   25) = (  -0.7501733  -0.7501733  -0.2500578), wk =   0.0312500
        k(   26) = (  -1.0002310  -0.5001155  -0.5001155), wk =   0.0312500
        k(   27) = (  -0.2500578  -1.2502888   0.2500578), wk =   0.0312500
        k(   28) = (  -0.5001155  -1.0002310  -0.0000000), wk =   0.0312500
        k(   29) = (  -0.5001155  -0.5001155  -0.0000000), wk =   0.0312500
        k(   30) = (  -0.7501733  -0.2500578  -0.2500578), wk =   0.0312500
        k(   31) = (  -0.0000000  -1.0002310   0.5001155), wk =   0.0312500
        k(   32) = (  -0.2500578  -0.7501733   0.2500578), wk =   0.0312500
        k(   33) = (   0.5001155   0.5001155  -0.5001155), wk =   0.0312500
        k(   34) = (   0.2500578   0.7501733  -0.7501733), wk =   0.0312500
        k(   35) = (   1.0002310   0.0000000   0.0000000), wk =   0.0312500
        k(   36) = (   0.7501733   0.2500578  -0.2500578), wk =   0.0312500
        k(   37) = (   0.7501733   0.7501733  -0.2500578), wk =   0.0312500
        k(   38) = (   0.5001155   1.0002310  -0.5001155), wk =   0.0312500
        k(   39) = (   1.2502888   0.2500578   0.2500578), wk =   0.0312500
        k(   40) = (   1.0002310   0.5001155   0.0000000), wk =   0.0312500
        k(   41) = (  -0.0000000  -0.0000000  -1.0002310), wk =   0.0312500
        k(   42) = (  -0.2500578   0.2500578  -1.2502888), wk =   0.0312500
        k(   43) = (   0.5001155  -0.5001155  -0.5001155), wk =   0.0312500
        k(   44) = (   0.2500578  -0.2500578  -0.7501733), wk =   0.0312500
        k(   45) = (   0.2500578   0.2500578  -0.7501733), wk =   0.0312500
        k(   46) = (  -0.0000000   0.5001155  -1.0002310), wk =   0.0312500
        k(   47) = (   0.7501733  -0.2500578  -0.2500578), wk =   0.0312500
        k(   48) = (   0.5001155   0.0000000  -0.5001155), wk =   0.0312500
        k(   49) = (   0.2500578   0.2500578  -0.2500578), wk =   0.0312500
        k(   50) = (  -0.0000000   0.5001155  -0.5001155), wk =   0.0312500
        k(   51) = (   0.7501733  -0.2500578   0.2500578), wk =   0.0312500
        k(   52) = (   0.5001155   0.0000000   0.0000000), wk =   0.0312500
        k(   53) = (   0.5001155   0.5001155   0.0000000), wk =   0.0312500
        k(   54) = (   0.2500578   0.7501733  -0.2500578), wk =   0.0312500
        k(   55) = (   1.0002310   0.0000000   0.5001155), wk =   0.0312500
        k(   56) = (   0.7501733   0.2500578   0.2500578), wk =   0.0312500
        k(   57) = (  -0.2500578  -0.2500578  -0.7501733), wk =   0.0312500
        k(   58) = (  -0.5001155  -0.0000000  -1.0002310), wk =   0.0312500
        k(   59) = (   0.2500578  -0.7501733  -0.2500578), wk =   0.0312500
        k(   60) = (  -0.0000000  -0.5001155  -0.5001155), wk =   0.0312500
        k(   61) = (  -0.0000000  -0.0000000  -0.5001155), wk =   0.0312500
        k(   62) = (  -0.2500578   0.2500578  -0.7501733), wk =   0.0312500
        k(   63) = (   0.5001155  -0.5001155   0.0000000), wk =   0.0312500
        k(   64) = (   0.2500578  -0.2500578  -0.2500578), wk =   0.0312500

     Dense  grid:     4693 G-vectors     FFT dimensions: (  24,  24,  24)

     Estimated max dynamical RAM per process >       0.25MB

     Estimated total allocated dynamical RAM >      10.14MB

     Initial potential from superposition of free atoms

     starting charge    7.98607, renormalised to    8.00000
     Starting wfc are random

     Writing output data file c.save

     total cpu time spent up to now is       17.3 secs

     per-process dynamical memory:    19.5 Mb

     Self-consistent Calculation

     iteration #  1     ecut=    60.00 Ry     beta=0.70
     Davidson diagonalization with overlap
     ethr =  1.00E-06,  avg # of iterations = 11.2

     total cpu time spent up to now is       19.6 secs

     total energy              =     -22.77931345 Ry
     Harris-Foulkes estimate   =     -22.81922556 Ry
     estimated scf accuracy    <       0.12160153 Ry

     iteration #  2     ecut=    60.00 Ry     beta=0.70
     Davidson diagonalization with overlap
     ethr =  1.52E-03,  avg # of iterations =  1.1

     total cpu time spent up to now is       20.0 secs

     total energy              =     -22.77116369 Ry
     Harris-Foulkes estimate   =     -22.78227385 Ry
     estimated scf accuracy    <       0.02649305 Ry

     iteration #  3     ecut=    60.00 Ry     beta=0.70
     Davidson diagonalization with overlap
     ethr =  3.31E-04,  avg # of iterations =  2.0

     total cpu time spent up to now is       20.5 secs

     total energy              =     -22.77376525 Ry
     Harris-Foulkes estimate   =     -22.77358541 Ry
     estimated scf accuracy    <       0.00013363 Ry

     iteration #  4     ecut=    60.00 Ry     beta=0.70
     Davidson diagonalization with overlap
     ethr =  1.67E-06,  avg # of iterations =  3.2

     total cpu time spent up to now is       21.4 secs

     total energy              =     -22.77384367 Ry
     Harris-Foulkes estimate   =     -22.77384511 Ry
     estimated scf accuracy    <       0.00000957 Ry

     iteration #  5     ecut=    60.00 Ry     beta=0.70
     Davidson diagonalization with overlap
     ethr =  1.20E-07,  avg # of iterations =  2.3

     total cpu time spent up to now is       22.0 secs

     total energy              =     -22.77384481 Ry
     Harris-Foulkes estimate   =     -22.77384488 Ry
     estimated scf accuracy    <       0.00000107 Ry

     iteration #  6     ecut=    60.00 Ry     beta=0.70
     Davidson diagonalization with overlap
     ethr =  1.34E-08,  avg # of iterations =  2.3

     total cpu time spent up to now is       22.6 secs

     total energy              =     -22.77384495 Ry
     Harris-Foulkes estimate   =     -22.77384494 Ry
     estimated scf accuracy    <       0.00000002 Ry

     iteration #  7     ecut=    60.00 Ry     beta=0.70
     Davidson diagonalization with overlap
     ethr =  2.88E-10,  avg # of iterations =  2.2

     total cpu time spent up to now is       23.2 secs

     total energy              =     -22.77384495 Ry
     Harris-Foulkes estimate   =     -22.77384495 Ry
     estimated scf accuracy    <          7.4E-10 Ry

     iteration #  8     ecut=    60.00 Ry     beta=0.70
     Davidson diagonalization with overlap
     ethr =  9.30E-12,  avg # of iterations =  3.1

     total cpu time spent up to now is       23.9 secs

     total energy              =     -22.77384495 Ry
     Harris-Foulkes estimate   =     -22.77384495 Ry
     estimated scf accuracy    <          4.7E-12 Ry

     iteration #  9     ecut=    60.00 Ry     beta=0.70
     Davidson diagonalization with overlap
     ethr =  1.00E-13,  avg # of iterations =  2.4

     total cpu time spent up to now is       24.5 secs

     total energy              =     -22.77384495 Ry
     Harris-Foulkes estimate   =     -22.77384495 Ry
     estimated scf accuracy    <          2.8E-13 Ry

     iteration # 10     ecut=    60.00 Ry     beta=0.70
     Davidson diagonalization with overlap
     ethr =  1.00E-13,  avg # of iterations =  1.0

     total cpu time spent up to now is       24.9 secs

     total energy              =     -22.77384495 Ry
     Harris-Foulkes estimate   =     -22.77384495 Ry
     estimated scf accuracy    <          1.9E-14 Ry

     iteration # 11     ecut=    60.00 Ry     beta=0.70
     Davidson diagonalization with overlap
     ethr =  1.00E-13,  avg # of iterations =  1.0

     total cpu time spent up to now is       25.2 secs

     total energy              =     -22.77384495 Ry
     Harris-Foulkes estimate   =     -22.77384495 Ry
     estimated scf accuracy    <          1.6E-15 Ry

     iteration # 12     ecut=    60.00 Ry     beta=0.70
     Davidson diagonalization with overlap
     ethr =  1.00E-13,  avg # of iterations =  1.0

     total cpu time spent up to now is       25.6 secs

     End of self-consistent calculation

          k = 0.0000 0.0000 0.0000 (   609 PWs)   bands (ev):

    -8.0673  13.4885  13.4885  13.4885  19.1098  19.1098  19.1098  27.0088

          k =-0.2501 0.2501-0.2501 (   589 PWs)   bands (ev):

    -6.3444   6.8722  11.7350  11.7350  21.3232  21.3232  21.7289  28.2562

          k = 0.5001-0.5001 0.5001 (   580 PWs)   bands (ev):

    -2.2474   0.0426  10.6711  10.6711  21.9996  21.9996  22.4758  29.2624

          k = 0.2501-0.2501 0.2501 (   589 PWs)   bands (ev):

    -6.3444   6.8722  11.7350  11.7350  21.3232  21.3232  21.7289  28.2562

          k = 0.2501 0.2501 0.2501 (   589 PWs)   bands (ev):

    -6.3444   6.8722  11.7350  11.7350  21.3232  21.3232  21.7289  28.2562

          k = 0.0000 0.5001 0.0000 (   592 PWs)   bands (ev):

    -5.7727   8.9780   9.3396   9.3396  17.9729  23.8242  25.1488  25.1488

          k = 0.7502-0.2501 0.7502 (   598 PWs)   bands (ev):

    -2.0130   2.6614   6.7178   8.5778  19.6218  25.0043  26.3741  26.9246

          k = 0.5001 0.0000 0.5001 (   602 PWs)   bands (ev):

    -3.5775   4.7643   5.8358  10.4576  21.4824  23.5530  25.9386  27.5245

          k =-0.5001-0.5001-0.5001 (   580 PWs)   bands (ev):

    -2.2474   0.0426  10.6711  10.6711  21.9996  21.9996  22.4758  29.2624

          k =-0.7502-0.2501-0.7502 (   598 PWs)   bands (ev):

    -2.0130   2.6614   6.7178   8.5778  19.6218  25.0043  26.3741  26.9246

          k =-0.0000-1.0002-0.0000 (   588 PWs)   bands (ev):

     0.6891   0.6891   7.1472   7.1472  18.3015  18.3015  30.3992  30.3992

          k =-0.2501-0.7502-0.2501 (   598 PWs)   bands (ev):

    -2.0130   2.6614   6.7178   8.5778  19.6218  25.0043  26.3741  26.9246

          k =-0.2501-0.2501-0.2501 (   589 PWs)   bands (ev):

    -6.3444   6.8722  11.7350  11.7350  21.3232  21.3232  21.7289  28.2562

          k =-0.5001-0.0000-0.5001 (   602 PWs)   bands (ev):

    -3.5775   4.7643   5.8358  10.4576  21.4824  23.5530  25.9386  27.5245

          k = 0.2501-0.7502 0.2501 (   598 PWs)   bands (ev):

    -2.0130   2.6614   6.7178   8.5778  19.6218  25.0043  26.3741  26.9246

          k =-0.0000-0.5001-0.0000 (   592 PWs)   bands (ev):

    -5.7727   8.9780   9.3396   9.3396  17.9729  23.8242  25.1488  25.1488

          k =-0.2501-0.2501 0.2501 (   589 PWs)   bands (ev):

    -6.3444   6.8722  11.7350  11.7350  21.3232  21.3232  21.7289  28.2562

          k =-0.5001-0.0000-0.0000 (   592 PWs)   bands (ev):

    -5.7727   8.9780   9.3396   9.3396  17.9729  23.8242  25.1488  25.1488

          k = 0.2501-0.7502 0.7502 (   598 PWs)   bands (ev):

    -2.0130   2.6614   6.7178   8.5778  19.6218  25.0043  26.3741  26.9246

          k = 0.0000-0.5001 0.5001 (   602 PWs)   bands (ev):

    -3.5775   4.7643   5.8358  10.4576  21.4824  23.5530  25.9386  27.5245

          k = 0.0000 0.0000 0.5001 (   592 PWs)   bands (ev):

    -5.7727   8.9780   9.3396   9.3396  17.9729  23.8242  25.1488  25.1488

          k =-0.2501 0.2501 0.2501 (   589 PWs)   bands (ev):

    -6.3444   6.8722  11.7350  11.7350  21.3232  21.3232  21.7289  28.2562

          k = 0.5001-0.5001 1.0002 (   602 PWs)   bands (ev):

    -3.5775   4.7643   5.8358  10.4576  21.4824  23.5530  25.9386  27.5245

          k = 0.2501-0.2501 0.7502 (   598 PWs)   bands (ev):

    -2.0130   2.6614   6.7178   8.5778  19.6218  25.0043  26.3741  26.9246

          k =-0.7502-0.7502-0.2501 (   598 PWs)   bands (ev):

    -2.0130   2.6614   6.7178   8.5778  19.6218  25.0043  26.3741  26.9246

          k =-1.0002-0.5001-0.5001 (   602 PWs)   bands (ev):

    -3.5775   4.7643   5.8358  10.4576  21.4824  23.5530  25.9386  27.5245

          k =-0.2501-1.2503 0.2501 (   598 PWs)   bands (ev):

    -2.0130   2.6614   6.7178   8.5778  19.6218  25.0043  26.3741  26.9246

          k =-0.5001-1.0002-0.0000 (   604 PWs)   bands (ev):

     1.4934   1.4934   5.1050   5.1050  24.1698  24.1698  25.9160  25.9160

          k =-0.5001-0.5001-0.0000 (   602 PWs)   bands (ev):

    -3.5775   4.7643   5.8358  10.4576  21.4824  23.5530  25.9386  27.5245

          k =-0.7502-0.2501-0.2501 (   598 PWs)   bands (ev):

    -2.0130   2.6614   6.7178   8.5778  19.6218  25.0043  26.3741  26.9246

          k =-0.0000-1.0002 0.5001 (   604 PWs)   bands (ev):

     1.4934   1.4934   5.1050   5.1050  24.1698  24.1698  25.9160  25.9160

          k =-0.2501-0.7502 0.2501 (   598 PWs)   bands (ev):

    -2.0130   2.6614   6.7178   8.5778  19.6218  25.0043  26.3741  26.9246

          k = 0.5001 0.5001-0.5001 (   580 PWs)   bands (ev):

    -2.2474   0.0426  10.6711  10.6711  21.9996  21.9996  22.4758  29.2624

          k = 0.2501 0.7502-0.7502 (   598 PWs)   bands (ev):

    -2.0130   2.6614   6.7178   8.5778  19.6218  25.0043  26.3741  26.9246

          k = 1.0002 0.0000 0.0000 (   588 PWs)   bands (ev):

     0.6891   0.6891   7.1472   7.1472  18.3015  18.3015  30.3992  30.3992

          k = 0.7502 0.2501-0.2501 (   598 PWs)   bands (ev):

    -2.0130   2.6614   6.7178   8.5778  19.6218  25.0043  26.3741  26.9246

          k = 0.7502 0.7502-0.2501 (   598 PWs)   bands (ev):

    -2.0130   2.6614   6.7178   8.5778  19.6218  25.0043  26.3741  26.9246

          k = 0.5001 1.0002-0.5001 (   602 PWs)   bands (ev):

    -3.5775   4.7643   5.8358  10.4576  21.4824  23.5530  25.9386  27.5245

          k = 1.2503 0.2501 0.2501 (   598 PWs)   bands (ev):

    -2.0130   2.6614   6.7178   8.5778  19.6218  25.0043  26.3741  26.9246

          k = 1.0002 0.5001 0.0000 (   604 PWs)   bands (ev):

     1.4934   1.4934   5.1050   5.1050  24.1698  24.1698  25.9160  25.9160

          k =-0.0000-0.0000-1.0002 (   588 PWs)   bands (ev):

     0.6891   0.6891   7.1472   7.1472  18.3015  18.3015  30.3992  30.3992

          k =-0.2501 0.2501-1.2503 (   598 PWs)   bands (ev):

    -2.0130   2.6614   6.7178   8.5778  19.6218  25.0043  26.3741  26.9246

          k = 0.5001-0.5001-0.5001 (   580 PWs)   bands (ev):

    -2.2474   0.0426  10.6711  10.6711  21.9996  21.9996  22.4758  29.2624

          k = 0.2501-0.2501-0.7502 (   598 PWs)   bands (ev):

    -2.0130   2.6614   6.7178   8.5778  19.6218  25.0043  26.3741  26.9246

          k = 0.2501 0.2501-0.7502 (   598 PWs)   bands (ev):

    -2.0130   2.6614   6.7178   8.5778  19.6218  25.0043  26.3741  26.9246

          k =-0.0000 0.5001-1.0002 (   604 PWs)   bands (ev):

     1.4934   1.4934   5.1050   5.1050  24.1698  24.1698  25.9160  25.9160

          k = 0.7502-0.2501-0.2501 (   598 PWs)   bands (ev):

    -2.0130   2.6614   6.7178   8.5778  19.6218  25.0043  26.3741  26.9246

          k = 0.5001 0.0000-0.5001 (   602 PWs)   bands (ev):

    -3.5775   4.7643   5.8358  10.4576  21.4824  23.5530  25.9386  27.5245

          k = 0.2501 0.2501-0.2501 (   589 PWs)   bands (ev):

    -6.3444   6.8722  11.7350  11.7350  21.3232  21.3232  21.7289  28.2562

          k =-0.0000 0.5001-0.5001 (   602 PWs)   bands (ev):

    -3.5775   4.7643   5.8358  10.4576  21.4824  23.5530  25.9386  27.5245

          k = 0.7502-0.2501 0.2501 (   598 PWs)   bands (ev):

    -2.0130   2.6614   6.7178   8.5778  19.6218  25.0043  26.3741  26.9246

          k = 0.5001 0.0000 0.0000 (   592 PWs)   bands (ev):

    -5.7727   8.9780   9.3396   9.3396  17.9729  23.8242  25.1488  25.1488

          k = 0.5001 0.5001 0.0000 (   602 PWs)   bands (ev):

    -3.5775   4.7643   5.8358  10.4576  21.4824  23.5530  25.9386  27.5245

          k = 0.2501 0.7502-0.2501 (   598 PWs)   bands (ev):

    -2.0130   2.6614   6.7178   8.5778  19.6218  25.0043  26.3741  26.9246

          k = 1.0002 0.0000 0.5001 (   604 PWs)   bands (ev):

     1.4934   1.4934   5.1050   5.1050  24.1698  24.1698  25.9160  25.9160

          k = 0.7502 0.2501 0.2501 (   598 PWs)   bands (ev):

    -2.0130   2.6614   6.7178   8.5778  19.6218  25.0043  26.3741  26.9246

          k =-0.2501-0.2501-0.7502 (   598 PWs)   bands (ev):

    -2.0130   2.6614   6.7178   8.5778  19.6218  25.0043  26.3741  26.9246

          k =-0.5001-0.0000-1.0002 (   604 PWs)   bands (ev):

     1.4934   1.4934   5.1050   5.1050  24.1698  24.1698  25.9160  25.9160

          k = 0.2501-0.7502-0.2501 (   598 PWs)   bands (ev):

    -2.0130   2.6614   6.7178   8.5778  19.6218  25.0043  26.3741  26.9246

          k =-0.0000-0.5001-0.5001 (   602 PWs)   bands (ev):

    -3.5775   4.7643   5.8358  10.4576  21.4824  23.5530  25.9386  27.5245

          k =-0.0000-0.0000-0.5001 (   592 PWs)   bands (ev):

    -5.7727   8.9780   9.3396   9.3396  17.9729  23.8242  25.1488  25.1488

          k =-0.2501 0.2501-0.7502 (   598 PWs)   bands (ev):

    -2.0130   2.6614   6.7178   8.5778  19.6218  25.0043  26.3741  26.9246

          k = 0.5001-0.5001 0.0000 (   602 PWs)   bands (ev):

    -3.5775   4.7643   5.8358  10.4576  21.4824  23.5530  25.9386  27.5245

          k = 0.2501-0.2501-0.2501 (   589 PWs)   bands (ev):

    -6.3444   6.8722  11.7350  11.7350  21.3232  21.3232  21.7289  28.2562

     highest occupied, lowest unoccupied level (ev):    13.4885   17.9729

!    total energy              =     -22.77384495 Ry
     Harris-Foulkes estimate   =     -22.77384495 Ry
     estimated scf accuracy    <          4.1E-18 Ry

     The total energy is the sum of the following terms:

     one-electron contribution =       8.05802759 Ry
     hartree contribution      =       1.94534192 Ry
     xc contribution           =      -7.13599010 Ry
     ewald contribution        =     -25.64122436 Ry

     convergence has been achieved in  12 iterations

     Forces acting on atoms (cartesian axes, Ry/au):

     atom    1 type  1   force =     0.00000000    0.00000000   -0.00000000
     atom    2 type  1   force =    -0.00000000   -0.00000000    0.00000000

     Total force =     0.000000     Total SCF correction =     0.000000
     SCF correction compared to forces is large: reduce conv_thr to get better values


     Computing stress (Cartesian axis) and pressure

          total   stress  (Ry/bohr**3)                   (kbar)     P=   -0.73
  -0.00000496   0.00000000   0.00000000         -0.73      0.00      0.00
   0.00000000  -0.00000496   0.00000000          0.00     -0.73      0.00
   0.00000000   0.00000000  -0.00000496          0.00      0.00     -0.73


     Writing output data file c.save
 
     init_run     :      0.33s CPU      0.34s WALL (       2 calls)
     electrons    :     24.33s CPU     24.88s WALL (       4 calls)
     update_pot   :      0.01s CPU      0.01s WALL (       2 calls)
     forces       :      0.03s CPU      0.04s WALL (       4 calls)
     stress       :      0.05s CPU      0.05s WALL (       4 calls)

     Called by init_run:
     wfcinit      :      0.31s CPU      0.31s WALL (       2 calls)
     potinit      :      0.00s CPU      0.00s WALL (       2 calls)

     Called by electrons:
     c_bands      :     23.71s CPU     24.18s WALL (      42 calls)
     sum_band     :      0.55s CPU      0.59s WALL (      42 calls)
     v_of_rho     :      0.02s CPU      0.02s WALL (      44 calls)
     mix_rho      :      0.04s CPU      0.04s WALL (      42 calls)

     Called by c_bands:
     init_us_2    :      0.05s CPU      0.05s WALL (    6016 calls)
     cegterg      :     23.52s CPU     23.98s WALL (    2688 calls)

     Called by sum_band:

     Called by *egterg:
     h_psi        :      3.79s CPU      3.88s WALL (    9081 calls)
     g_psi        :      0.01s CPU      0.01s WALL (    6265 calls)
     cdiaghg      :     13.17s CPU     13.39s WALL (    8697 calls)

     Called by h_psi:
     h_psi:pot    :      3.77s CPU      3.87s WALL (    9081 calls)
     h_psi:calbec :      0.20s CPU      0.21s WALL (    9081 calls)
     vloc_psi     :      3.48s CPU      3.56s WALL (    9081 calls)
     add_vuspsi   :      0.06s CPU      0.06s WALL (    9081 calls)

     General routines
     calbec       :      0.22s CPU      0.23s WALL (   10361 calls)
     fft          :      0.02s CPU      0.03s WALL (     518 calls)
     ffts         :      0.02s CPU      0.02s WALL (     452 calls)
     fftw         :      3.77s CPU      3.88s WALL (  141934 calls)
 
     Parallel routines
     fft_scatter  :      3.10s CPU      3.20s WALL (  142904 calls)
 
     PWSCF        :    25.12s CPU        25.86s WALL

 
   This run was terminated on:  19:18:40  11Jan2021            

=------------------------------------------------------------------------------=
   JOB DONE.
=------------------------------------------------------------------------------=
