
     Program PWSCF v.6.1 (svn rev. 13369) starts on 11Jan2021 at 14:58:21 

     This program is part of the open-source Quantum ESPRESSO suite
     for quantum simulation of materials; please cite
         "P. Giannozzi et al., J. Phys.:Condens. Matter 21 395502 (2009);
          URL http://www.quantum-espresso.org", 
     in publications or presentations arising from this work. More details at
     http://www.quantum-espresso.org/quote

     Parallel version (MPI & OpenMP), running on      40 processor cores
     Number of MPI processes:                40
     Threads/MPI process:                     1
     R & G space division:  proc/nbgrp/npool/nimage =      40
     Waiting for input...
     Reading input from standard input

     Current dimensions of program PWSCF are:
     Max number of different atomic species (ntypx) = 10
     Max number of k-points (npk) =  40000
     Max angular momentum in pseudopotentials (lmaxx) =  3

     IMPORTANT: XC functional enforced from input :
     Exchange-correlation      = PBE ( 1  4  3  4 0 0)
     Any further DFT definition will be discarded
     Please, verify this is what you really want


     Subspace diagonalization in iterative solution of the eigenvalue problem:
     one sub-group per band group will be used
     scalapack distributed-memory algorithm (size of sub-group:  4*  4 procs)

 
     Parallelization info
     --------------------
     sticks:   dense  smooth     PW     G-vecs:    dense   smooth      PW
     Min           9       9      3                  116      116      23
     Max          10      10      4                  120      120      27
     Sum         367     367    121                 4693     4693     941
 


     bravais-lattice index     =            2
     lattice parameter (alat)  =       6.7242  a.u.
     unit-cell volume          =      76.0093 (a.u.)^3
     number of atoms/cell      =            2
     number of atomic types    =            1
     number of electrons       =         8.00
     number of Kohn-Sham states=            8
     kinetic-energy cutoff     =      60.0000  Ry
     charge density cutoff     =     240.0000  Ry
     convergence threshold     =      1.0E-20
     mixing beta               =       0.7000
     number of iterations used =            8  plain     mixing
     Exchange-correlation      = PBE ( 1  4  3  4 0 0)

     celldm(1)=   6.724225  celldm(2)=   0.000000  celldm(3)=   0.000000
     celldm(4)=   0.000000  celldm(5)=   0.000000  celldm(6)=   0.000000

     crystal axes: (cart. coord. in units of alat)
               a(1) = (  -0.500000   0.000000   0.500000 )  
               a(2) = (   0.000000   0.500000   0.500000 )  
               a(3) = (  -0.500000   0.500000   0.000000 )  

     reciprocal axes: (cart. coord. in units 2 pi/alat)
               b(1) = ( -1.000000 -1.000000  1.000000 )  
               b(2) = (  1.000000  1.000000  1.000000 )  
               b(3) = ( -1.000000  1.000000 -1.000000 )  


     PseudoPot. # 1 for C  read from file:
     ../C_ONCV_PBE-1.0.upf
     MD5 check sum: 40f8c33130f0afa4272e9dcc1c4fb0df
     Pseudo is Norm-conserving, Zval =  4.0
     Generated using ONCVPSP code by D. R. Hamann
     Using radial grid of  602 points,  4 beta functions with: 
                l(1) =   0
                l(2) =   0
                l(3) =   1
                l(4) =   1

     atomic species   valence    mass     pseudopotential
        C              4.00    12.01100     C ( 1.00)

     No symmetry found



   Cartesian axes

     site n.     atom                  positions (alat units)
         1           C   tau(   1) = (   0.0000000   0.0000000   0.0000000  )
         2           C   tau(   2) = (  -0.2500000   0.2500000   0.2500000  )

     number of k points=    64
                       cart. coord. in units 2pi/alat
        k(    1) = (   0.0000000   0.0000000   0.0000000), wk =   0.0312500
        k(    2) = (  -0.2500000   0.2500000  -0.2500000), wk =   0.0312500
        k(    3) = (   0.5000000  -0.5000000   0.5000000), wk =   0.0312500
        k(    4) = (   0.2500000  -0.2500000   0.2500000), wk =   0.0312500
        k(    5) = (   0.2500000   0.2500000   0.2500000), wk =   0.0312500
        k(    6) = (   0.0000000   0.5000000   0.0000000), wk =   0.0312500
        k(    7) = (   0.7500000  -0.2500000   0.7500000), wk =   0.0312500
        k(    8) = (   0.5000000   0.0000000   0.5000000), wk =   0.0312500
        k(    9) = (  -0.5000000  -0.5000000  -0.5000000), wk =   0.0312500
        k(   10) = (  -0.7500000  -0.2500000  -0.7500000), wk =   0.0312500
        k(   11) = (   0.0000000  -1.0000000   0.0000000), wk =   0.0312500
        k(   12) = (  -0.2500000  -0.7500000  -0.2500000), wk =   0.0312500
        k(   13) = (  -0.2500000  -0.2500000  -0.2500000), wk =   0.0312500
        k(   14) = (  -0.5000000   0.0000000  -0.5000000), wk =   0.0312500
        k(   15) = (   0.2500000  -0.7500000   0.2500000), wk =   0.0312500
        k(   16) = (   0.0000000  -0.5000000   0.0000000), wk =   0.0312500
        k(   17) = (  -0.2500000  -0.2500000   0.2500000), wk =   0.0312500
        k(   18) = (  -0.5000000   0.0000000   0.0000000), wk =   0.0312500
        k(   19) = (   0.2500000  -0.7500000   0.7500000), wk =   0.0312500
        k(   20) = (   0.0000000  -0.5000000   0.5000000), wk =   0.0312500
        k(   21) = (   0.0000000   0.0000000   0.5000000), wk =   0.0312500
        k(   22) = (  -0.2500000   0.2500000   0.2500000), wk =   0.0312500
        k(   23) = (   0.5000000  -0.5000000   1.0000000), wk =   0.0312500
        k(   24) = (   0.2500000  -0.2500000   0.7500000), wk =   0.0312500
        k(   25) = (  -0.7500000  -0.7500000  -0.2500000), wk =   0.0312500
        k(   26) = (  -1.0000000  -0.5000000  -0.5000000), wk =   0.0312500
        k(   27) = (  -0.2500000  -1.2500000   0.2500000), wk =   0.0312500
        k(   28) = (  -0.5000000  -1.0000000   0.0000000), wk =   0.0312500
        k(   29) = (  -0.5000000  -0.5000000   0.0000000), wk =   0.0312500
        k(   30) = (  -0.7500000  -0.2500000  -0.2500000), wk =   0.0312500
        k(   31) = (   0.0000000  -1.0000000   0.5000000), wk =   0.0312500
        k(   32) = (  -0.2500000  -0.7500000   0.2500000), wk =   0.0312500
        k(   33) = (   0.5000000   0.5000000  -0.5000000), wk =   0.0312500
        k(   34) = (   0.2500000   0.7500000  -0.7500000), wk =   0.0312500
        k(   35) = (   1.0000000   0.0000000   0.0000000), wk =   0.0312500
        k(   36) = (   0.7500000   0.2500000  -0.2500000), wk =   0.0312500
        k(   37) = (   0.7500000   0.7500000  -0.2500000), wk =   0.0312500
        k(   38) = (   0.5000000   1.0000000  -0.5000000), wk =   0.0312500
        k(   39) = (   1.2500000   0.2500000   0.2500000), wk =   0.0312500
        k(   40) = (   1.0000000   0.5000000   0.0000000), wk =   0.0312500
        k(   41) = (   0.0000000   0.0000000  -1.0000000), wk =   0.0312500
        k(   42) = (  -0.2500000   0.2500000  -1.2500000), wk =   0.0312500
        k(   43) = (   0.5000000  -0.5000000  -0.5000000), wk =   0.0312500
        k(   44) = (   0.2500000  -0.2500000  -0.7500000), wk =   0.0312500
        k(   45) = (   0.2500000   0.2500000  -0.7500000), wk =   0.0312500
        k(   46) = (   0.0000000   0.5000000  -1.0000000), wk =   0.0312500
        k(   47) = (   0.7500000  -0.2500000  -0.2500000), wk =   0.0312500
        k(   48) = (   0.5000000   0.0000000  -0.5000000), wk =   0.0312500
        k(   49) = (   0.2500000   0.2500000  -0.2500000), wk =   0.0312500
        k(   50) = (   0.0000000   0.5000000  -0.5000000), wk =   0.0312500
        k(   51) = (   0.7500000  -0.2500000   0.2500000), wk =   0.0312500
        k(   52) = (   0.5000000   0.0000000   0.0000000), wk =   0.0312500
        k(   53) = (   0.5000000   0.5000000   0.0000000), wk =   0.0312500
        k(   54) = (   0.2500000   0.7500000  -0.2500000), wk =   0.0312500
        k(   55) = (   1.0000000   0.0000000   0.5000000), wk =   0.0312500
        k(   56) = (   0.7500000   0.2500000   0.2500000), wk =   0.0312500
        k(   57) = (  -0.2500000  -0.2500000  -0.7500000), wk =   0.0312500
        k(   58) = (  -0.5000000   0.0000000  -1.0000000), wk =   0.0312500
        k(   59) = (   0.2500000  -0.7500000  -0.2500000), wk =   0.0312500
        k(   60) = (   0.0000000  -0.5000000  -0.5000000), wk =   0.0312500
        k(   61) = (   0.0000000   0.0000000  -0.5000000), wk =   0.0312500
        k(   62) = (  -0.2500000   0.2500000  -0.7500000), wk =   0.0312500
        k(   63) = (   0.5000000  -0.5000000   0.0000000), wk =   0.0312500
        k(   64) = (   0.2500000  -0.2500000  -0.2500000), wk =   0.0312500

     Dense  grid:     4693 G-vectors     FFT dimensions: (  24,  24,  24)

     Estimated max dynamical RAM per process >       0.21MB

     Estimated total allocated dynamical RAM >       8.47MB

     Initial potential from superposition of free atoms

     starting charge    7.98607, renormalised to    8.00000
     Starting wfc are random

     total cpu time spent up to now is        2.3 secs

     per-process dynamical memory:    11.9 Mb

     Self-consistent Calculation

     iteration #  1     ecut=    60.00 Ry     beta=0.70
     Davidson diagonalization with overlap
     ethr =  1.00E-02,  avg # of iterations =  7.0

     total cpu time spent up to now is        3.9 secs

     total energy              =     -22.76596515 Ry
     Harris-Foulkes estimate   =     -22.81842160 Ry
     estimated scf accuracy    <       0.11993706 Ry

     iteration #  2     ecut=    60.00 Ry     beta=0.70
     Davidson diagonalization with overlap
     ethr =  1.50E-03,  avg # of iterations =  2.0

     total cpu time spent up to now is        4.4 secs

     total energy              =     -22.77345201 Ry
     Harris-Foulkes estimate   =     -22.77386260 Ry
     estimated scf accuracy    <       0.00267870 Ry

     iteration #  3     ecut=    60.00 Ry     beta=0.70
     Davidson diagonalization with overlap
     ethr =  3.35E-05,  avg # of iterations =  2.8

     total cpu time spent up to now is        5.1 secs

     total energy              =     -22.77391212 Ry
     Harris-Foulkes estimate   =     -22.77389949 Ry
     estimated scf accuracy    <       0.00007602 Ry

     iteration #  4     ecut=    60.00 Ry     beta=0.70
     Davidson diagonalization with overlap
     ethr =  9.50E-07,  avg # of iterations =  2.2

     total cpu time spent up to now is        5.6 secs

     total energy              =     -22.77391707 Ry
     Harris-Foulkes estimate   =     -22.77391874 Ry
     estimated scf accuracy    <       0.00000352 Ry

     iteration #  5     ecut=    60.00 Ry     beta=0.70
     Davidson diagonalization with overlap
     ethr =  4.40E-08,  avg # of iterations =  2.2

     total cpu time spent up to now is        6.1 secs

     total energy              =     -22.77391744 Ry
     Harris-Foulkes estimate   =     -22.77391745 Ry
     estimated scf accuracy    <       0.00000006 Ry

     iteration #  6     ecut=    60.00 Ry     beta=0.70
     Davidson diagonalization with overlap
     ethr =  7.93E-10,  avg # of iterations =  2.2

     total cpu time spent up to now is        6.7 secs

     total energy              =     -22.77391747 Ry
     Harris-Foulkes estimate   =     -22.77391746 Ry
     estimated scf accuracy    <          6.8E-09 Ry

     iteration #  7     ecut=    60.00 Ry     beta=0.70
     Davidson diagonalization with overlap
     ethr =  8.51E-11,  avg # of iterations =  3.0

     total cpu time spent up to now is        7.4 secs

     total energy              =     -22.77391747 Ry
     Harris-Foulkes estimate   =     -22.77391747 Ry
     estimated scf accuracy    <          1.1E-10 Ry

     iteration #  8     ecut=    60.00 Ry     beta=0.70
     Davidson diagonalization with overlap
     ethr =  1.35E-12,  avg # of iterations =  2.8

     total cpu time spent up to now is        8.1 secs

     total energy              =     -22.77391747 Ry
     Harris-Foulkes estimate   =     -22.77391747 Ry
     estimated scf accuracy    <          4.5E-13 Ry

     iteration #  9     ecut=    60.00 Ry     beta=0.70
     Davidson diagonalization with overlap
     ethr =  1.00E-13,  avg # of iterations =  1.2

     total cpu time spent up to now is        8.5 secs

     total energy              =     -22.77391747 Ry
     Harris-Foulkes estimate   =     -22.77391747 Ry
     estimated scf accuracy    <          2.2E-14 Ry

     iteration # 10     ecut=    60.00 Ry     beta=0.70
     Davidson diagonalization with overlap
     ethr =  1.00E-13,  avg # of iterations =  1.0

     total cpu time spent up to now is        8.8 secs

     total energy              =     -22.77391747 Ry
     Harris-Foulkes estimate   =     -22.77391747 Ry
     estimated scf accuracy    <          6.3E-16 Ry

     iteration # 11     ecut=    60.00 Ry     beta=0.70
     Davidson diagonalization with overlap
     ethr =  1.00E-13,  avg # of iterations =  1.0

     total cpu time spent up to now is        9.1 secs

     total energy              =     -22.77391747 Ry
     Harris-Foulkes estimate   =     -22.77391747 Ry
     estimated scf accuracy    <          2.3E-17 Ry

     iteration # 12     ecut=    60.00 Ry     beta=0.70
     Davidson diagonalization with overlap
     ethr =  1.00E-13,  avg # of iterations =  1.0

     total cpu time spent up to now is        9.5 secs

     total energy              =     -22.77391747 Ry
     Harris-Foulkes estimate   =     -22.77391747 Ry
     estimated scf accuracy    <          1.4E-18 Ry

     iteration # 13     ecut=    60.00 Ry     beta=0.70
     Davidson diagonalization with overlap
     ethr =  1.00E-13,  avg # of iterations =  1.0

     total cpu time spent up to now is        9.8 secs

     total energy              =     -22.77391747 Ry
     Harris-Foulkes estimate   =     -22.77391747 Ry
     estimated scf accuracy    <          1.9E-19 Ry

     iteration # 14     ecut=    60.00 Ry     beta=0.70
     Davidson diagonalization with overlap
     ethr =  1.00E-13,  avg # of iterations =  1.0

     total cpu time spent up to now is       10.2 secs

     total energy              =     -22.77391747 Ry
     Harris-Foulkes estimate   =     -22.77391747 Ry
     estimated scf accuracy    <          7.4E-20 Ry

     iteration # 15     ecut=    60.00 Ry     beta=0.70
     Davidson diagonalization with overlap
     ethr =  1.00E-13,  avg # of iterations =  1.0

     total cpu time spent up to now is       10.5 secs

     total energy              =     -22.77391747 Ry
     Harris-Foulkes estimate   =     -22.77391747 Ry
     estimated scf accuracy    <          2.8E-20 Ry

     iteration # 16     ecut=    60.00 Ry     beta=0.70
     Davidson diagonalization with overlap
     ethr =  1.00E-13,  avg # of iterations =  1.0

     total cpu time spent up to now is       10.8 secs

     total energy              =     -22.77391747 Ry
     Harris-Foulkes estimate   =     -22.77391747 Ry
     estimated scf accuracy    <          5.8E-20 Ry

     iteration # 17     ecut=    60.00 Ry     beta=0.70
     Davidson diagonalization with overlap
     ethr =  1.00E-13,  avg # of iterations =  1.0

     total cpu time spent up to now is       11.2 secs

     End of self-consistent calculation

          k = 0.0000 0.0000 0.0000 (   609 PWs)   bands (ev):

    -8.0705  13.4761  13.4761  13.4761  19.0954  19.0954  19.0954  26.9804

          k =-0.2500 0.2500-0.2500 (   595 PWs)   bands (ev):

    -6.3485   6.8630  11.7231  11.7231  21.3074  21.3074  21.7074  28.2297

          k = 0.5000-0.5000 0.5000 (   580 PWs)   bands (ev):

    -2.2546   0.0379  10.6605  10.6605  21.9843  21.9843  22.4538  29.2436

          k = 0.2500-0.2500 0.2500 (   595 PWs)   bands (ev):

    -6.3485   6.8630  11.7231  11.7231  21.3074  21.3074  21.7074  28.2297

          k = 0.2500 0.2500 0.2500 (   595 PWs)   bands (ev):

    -6.3485   6.8630  11.7231  11.7231  21.3074  21.3074  21.7074  28.2297

          k = 0.0000 0.5000 0.0000 (   592 PWs)   bands (ev):

    -5.7770   8.9664   9.3301   9.3301  17.9587  23.8070  25.1302  25.1302

          k = 0.7500-0.2500 0.7500 (   602 PWs)   bands (ev):

    -2.0196   2.6536   6.7089   8.5683  19.6069  24.9864  26.3543  26.9022

          k = 0.5000 0.0000 0.5000 (   602 PWs)   bands (ev):

    -3.5830   4.7553   5.8282  10.4472  21.4663  23.5358  25.9188  27.5018

          k =-0.5000-0.5000-0.5000 (   580 PWs)   bands (ev):

    -2.2546   0.0379  10.6605  10.6605  21.9843  21.9843  22.4538  29.2436

          k =-0.7500-0.2500-0.7500 (   602 PWs)   bands (ev):

    -2.0196   2.6536   6.7089   8.5683  19.6069  24.9864  26.3543  26.9022

          k = 0.0000-1.0000 0.0000 (   588 PWs)   bands (ev):

     0.6815   0.6815   7.1390   7.1390  18.2875  18.2875  30.3764  30.3764

          k =-0.2500-0.7500-0.2500 (   602 PWs)   bands (ev):

    -2.0196   2.6536   6.7089   8.5683  19.6069  24.9864  26.3543  26.9022

          k =-0.2500-0.2500-0.2500 (   595 PWs)   bands (ev):

    -6.3485   6.8630  11.7231  11.7231  21.3074  21.3074  21.7074  28.2297

          k =-0.5000 0.0000-0.5000 (   602 PWs)   bands (ev):

    -3.5830   4.7553   5.8282  10.4472  21.4663  23.5358  25.9188  27.5018

          k = 0.2500-0.7500 0.2500 (   602 PWs)   bands (ev):

    -2.0196   2.6536   6.7089   8.5683  19.6069  24.9864  26.3543  26.9022

          k = 0.0000-0.5000 0.0000 (   592 PWs)   bands (ev):

    -5.7770   8.9664   9.3301   9.3301  17.9587  23.8070  25.1302  25.1302

          k =-0.2500-0.2500 0.2500 (   595 PWs)   bands (ev):

    -6.3485   6.8630  11.7231  11.7231  21.3074  21.3074  21.7074  28.2297

          k =-0.5000 0.0000 0.0000 (   592 PWs)   bands (ev):

    -5.7770   8.9664   9.3301   9.3301  17.9587  23.8070  25.1302  25.1302

          k = 0.2500-0.7500 0.7500 (   602 PWs)   bands (ev):

    -2.0196   2.6536   6.7089   8.5683  19.6069  24.9864  26.3543  26.9022

          k = 0.0000-0.5000 0.5000 (   602 PWs)   bands (ev):

    -3.5830   4.7553   5.8282  10.4472  21.4663  23.5358  25.9188  27.5018

          k = 0.0000 0.0000 0.5000 (   592 PWs)   bands (ev):

    -5.7770   8.9664   9.3301   9.3301  17.9587  23.8070  25.1302  25.1302

          k =-0.2500 0.2500 0.2500 (   595 PWs)   bands (ev):

    -6.3485   6.8630  11.7231  11.7231  21.3074  21.3074  21.7074  28.2297

          k = 0.5000-0.5000 1.0000 (   602 PWs)   bands (ev):

    -3.5830   4.7553   5.8282  10.4472  21.4663  23.5358  25.9188  27.5018

          k = 0.2500-0.2500 0.7500 (   602 PWs)   bands (ev):

    -2.0196   2.6536   6.7089   8.5683  19.6069  24.9864  26.3543  26.9022

          k =-0.7500-0.7500-0.2500 (   602 PWs)   bands (ev):

    -2.0196   2.6536   6.7089   8.5683  19.6069  24.9864  26.3543  26.9022

          k =-1.0000-0.5000-0.5000 (   602 PWs)   bands (ev):

    -3.5830   4.7553   5.8282  10.4472  21.4663  23.5358  25.9188  27.5018

          k =-0.2500-1.2500 0.2500 (   602 PWs)   bands (ev):

    -2.0196   2.6536   6.7089   8.5683  19.6069  24.9864  26.3543  26.9022

          k =-0.5000-1.0000 0.0000 (   604 PWs)   bands (ev):

     1.4847   1.4847   5.0985   5.0985  24.1542  24.1542  25.8946  25.8946

          k =-0.5000-0.5000 0.0000 (   602 PWs)   bands (ev):

    -3.5830   4.7553   5.8282  10.4472  21.4663  23.5358  25.9188  27.5018

          k =-0.7500-0.2500-0.2500 (   602 PWs)   bands (ev):

    -2.0196   2.6536   6.7089   8.5683  19.6069  24.9864  26.3543  26.9022

          k = 0.0000-1.0000 0.5000 (   604 PWs)   bands (ev):

     1.4847   1.4847   5.0985   5.0985  24.1542  24.1542  25.8946  25.8946

          k =-0.2500-0.7500 0.2500 (   602 PWs)   bands (ev):

    -2.0196   2.6536   6.7089   8.5683  19.6069  24.9864  26.3543  26.9022

          k = 0.5000 0.5000-0.5000 (   580 PWs)   bands (ev):

    -2.2546   0.0379  10.6605  10.6605  21.9843  21.9843  22.4538  29.2436

          k = 0.2500 0.7500-0.7500 (   602 PWs)   bands (ev):

    -2.0196   2.6536   6.7089   8.5683  19.6069  24.9864  26.3543  26.9022

          k = 1.0000 0.0000 0.0000 (   588 PWs)   bands (ev):

     0.6815   0.6815   7.1390   7.1390  18.2875  18.2875  30.3764  30.3764

          k = 0.7500 0.2500-0.2500 (   602 PWs)   bands (ev):

    -2.0196   2.6536   6.7089   8.5683  19.6069  24.9864  26.3543  26.9022

          k = 0.7500 0.7500-0.2500 (   602 PWs)   bands (ev):

    -2.0196   2.6536   6.7089   8.5683  19.6069  24.9864  26.3543  26.9022

          k = 0.5000 1.0000-0.5000 (   602 PWs)   bands (ev):

    -3.5830   4.7553   5.8282  10.4472  21.4663  23.5358  25.9188  27.5018

          k = 1.2500 0.2500 0.2500 (   602 PWs)   bands (ev):

    -2.0196   2.6536   6.7089   8.5683  19.6069  24.9864  26.3543  26.9022

          k = 1.0000 0.5000 0.0000 (   604 PWs)   bands (ev):

     1.4847   1.4847   5.0985   5.0985  24.1542  24.1542  25.8946  25.8946

          k = 0.0000 0.0000-1.0000 (   588 PWs)   bands (ev):

     0.6815   0.6815   7.1390   7.1390  18.2875  18.2875  30.3764  30.3764

          k =-0.2500 0.2500-1.2500 (   602 PWs)   bands (ev):

    -2.0196   2.6536   6.7089   8.5683  19.6069  24.9864  26.3543  26.9022

          k = 0.5000-0.5000-0.5000 (   580 PWs)   bands (ev):

    -2.2546   0.0379  10.6605  10.6605  21.9843  21.9843  22.4538  29.2436

          k = 0.2500-0.2500-0.7500 (   602 PWs)   bands (ev):

    -2.0196   2.6536   6.7089   8.5683  19.6069  24.9864  26.3543  26.9022

          k = 0.2500 0.2500-0.7500 (   602 PWs)   bands (ev):

    -2.0196   2.6536   6.7089   8.5683  19.6069  24.9864  26.3543  26.9022

          k = 0.0000 0.5000-1.0000 (   604 PWs)   bands (ev):

     1.4847   1.4847   5.0985   5.0985  24.1542  24.1542  25.8946  25.8946

          k = 0.7500-0.2500-0.2500 (   602 PWs)   bands (ev):

    -2.0196   2.6536   6.7089   8.5683  19.6069  24.9864  26.3543  26.9022

          k = 0.5000 0.0000-0.5000 (   602 PWs)   bands (ev):

    -3.5830   4.7553   5.8282  10.4472  21.4663  23.5358  25.9188  27.5018

          k = 0.2500 0.2500-0.2500 (   595 PWs)   bands (ev):

    -6.3485   6.8630  11.7231  11.7231  21.3074  21.3074  21.7074  28.2297

          k = 0.0000 0.5000-0.5000 (   602 PWs)   bands (ev):

    -3.5830   4.7553   5.8282  10.4472  21.4663  23.5358  25.9188  27.5018

          k = 0.7500-0.2500 0.2500 (   602 PWs)   bands (ev):

    -2.0196   2.6536   6.7089   8.5683  19.6069  24.9864  26.3543  26.9022

          k = 0.5000 0.0000 0.0000 (   592 PWs)   bands (ev):

    -5.7770   8.9664   9.3301   9.3301  17.9587  23.8070  25.1302  25.1302

          k = 0.5000 0.5000 0.0000 (   602 PWs)   bands (ev):

    -3.5830   4.7553   5.8282  10.4472  21.4663  23.5358  25.9188  27.5018

          k = 0.2500 0.7500-0.2500 (   602 PWs)   bands (ev):

    -2.0196   2.6536   6.7089   8.5683  19.6069  24.9864  26.3543  26.9022

          k = 1.0000 0.0000 0.5000 (   604 PWs)   bands (ev):

     1.4847   1.4847   5.0985   5.0985  24.1542  24.1542  25.8946  25.8946

          k = 0.7500 0.2500 0.2500 (   602 PWs)   bands (ev):

    -2.0196   2.6536   6.7089   8.5683  19.6069  24.9864  26.3543  26.9022

          k =-0.2500-0.2500-0.7500 (   602 PWs)   bands (ev):

    -2.0196   2.6536   6.7089   8.5683  19.6069  24.9864  26.3543  26.9022

          k =-0.5000 0.0000-1.0000 (   604 PWs)   bands (ev):

     1.4847   1.4847   5.0985   5.0985  24.1542  24.1542  25.8946  25.8946

          k = 0.2500-0.7500-0.2500 (   602 PWs)   bands (ev):

    -2.0196   2.6536   6.7089   8.5683  19.6069  24.9864  26.3543  26.9022

          k = 0.0000-0.5000-0.5000 (   602 PWs)   bands (ev):

    -3.5830   4.7553   5.8282  10.4472  21.4663  23.5358  25.9188  27.5018

          k = 0.0000 0.0000-0.5000 (   592 PWs)   bands (ev):

    -5.7770   8.9664   9.3301   9.3301  17.9587  23.8070  25.1302  25.1302

          k =-0.2500 0.2500-0.7500 (   602 PWs)   bands (ev):

    -2.0196   2.6536   6.7089   8.5683  19.6069  24.9864  26.3543  26.9022

          k = 0.5000-0.5000 0.0000 (   602 PWs)   bands (ev):

    -3.5830   4.7553   5.8282  10.4472  21.4663  23.5358  25.9188  27.5018

          k = 0.2500-0.2500-0.2500 (   595 PWs)   bands (ev):

    -6.3485   6.8630  11.7231  11.7231  21.3074  21.3074  21.7074  28.2297

     highest occupied, lowest unoccupied level (ev):    13.4761   17.9587

!    total energy              =     -22.77391747 Ry
     Harris-Foulkes estimate   =     -22.77391747 Ry
     estimated scf accuracy    <          5.8E-22 Ry

     The total energy is the sum of the following terms:

     one-electron contribution =       8.05016691 Ry
     hartree contribution      =       1.94607472 Ry
     xc contribution           =      -7.13485753 Ry
     ewald contribution        =     -25.63530157 Ry

     convergence has been achieved in  17 iterations

     Writing output data file c.save
 
     init_run     :      0.40s CPU      1.66s WALL (       1 calls)
     electrons    :      8.66s CPU      8.89s WALL (       1 calls)

     Called by init_run:
     wfcinit      :      0.35s CPU      1.14s WALL (       1 calls)
     potinit      :      0.02s CPU      0.08s WALL (       1 calls)

     Called by electrons:
     c_bands      :      8.41s CPU      8.56s WALL (      17 calls)
     sum_band     :      0.22s CPU      0.24s WALL (      17 calls)
     v_of_rho     :      0.03s CPU      0.05s WALL (      18 calls)
     mix_rho      :      0.01s CPU      0.02s WALL (      17 calls)

     Called by c_bands:
     init_us_2    :      0.02s CPU      0.02s WALL (    2240 calls)
     cegterg      :      8.33s CPU      8.48s WALL (    1088 calls)

     Called by sum_band:

     Called by *egterg:
     h_psi        :      1.37s CPU      1.44s WALL (    3290 calls)
     g_psi        :      0.00s CPU      0.00s WALL (    2138 calls)
     cdiaghg      :      4.76s CPU      5.51s WALL (    3226 calls)

     Called by h_psi:
     h_psi:pot    :      1.36s CPU      1.43s WALL (    3290 calls)
     h_psi:calbec :      0.07s CPU      0.09s WALL (    3290 calls)
     vloc_psi     :      1.26s CPU      1.30s WALL (    3290 calls)
     add_vuspsi   :      0.02s CPU      0.02s WALL (    3290 calls)

     General routines
     calbec       :      0.07s CPU      0.08s WALL (    3290 calls)
     fft          :      0.02s CPU      0.26s WALL (     197 calls)
     fftw         :      1.38s CPU      1.43s WALL (   53958 calls)
 
     Parallel routines
     fft_scatter  :      1.14s CPU      1.19s WALL (   54155 calls)
 
     PWSCF        :     9.50s CPU        13.52s WALL

 
   This run was terminated on:  14:58:34  11Jan2021            

=------------------------------------------------------------------------------=
   JOB DONE.
=------------------------------------------------------------------------------=
