
     Program PWSCF v.6.1 (svn rev. 13369) starts on 11Jan2021 at  9:19:40 

     This program is part of the open-source Quantum ESPRESSO suite
     for quantum simulation of materials; please cite
         "P. Giannozzi et al., J. Phys.:Condens. Matter 21 395502 (2009);
          URL http://www.quantum-espresso.org", 
     in publications or presentations arising from this work. More details at
     http://www.quantum-espresso.org/quote

     Parallel version (MPI & OpenMP), running on      80 processor cores
     Number of MPI processes:                80
     Threads/MPI process:                     1
     R & G space division:  proc/nbgrp/npool/nimage =      80
     Waiting for input...
     Reading input from standard input

     Current dimensions of program PWSCF are:
     Max number of different atomic species (ntypx) = 10
     Max number of k-points (npk) =  40000
     Max angular momentum in pseudopotentials (lmaxx) =  3

     IMPORTANT: XC functional enforced from input :
     Exchange-correlation      = PBE ( 1  4  3  4 0 0)
     Any further DFT definition will be discarded
     Please, verify this is what you really want


     Subspace diagonalization in iterative solution of the eigenvalue problem:
     one sub-group per band group will be used
     scalapack distributed-memory algorithm (size of sub-group:  6*  6 procs)

 
     Parallelization info
     --------------------
     sticks:   dense  smooth     PW     G-vecs:    dense   smooth      PW
     Min          97      97     24                 5625     5625     702
     Max          98      98     25                 5629     5629     704
     Sum        7765    7765   1945               450159   450159   56233
 


     bravais-lattice index     =            2
     lattice parameter (alat)  =      33.5171  a.u.
     unit-cell volume          =    9413.2672 (a.u.)^3
     number of atoms/cell      =          250
     number of atomic types    =            2
     number of electrons       =      1002.00
     number of Kohn-Sham states=          600
     kinetic-energy cutoff     =      50.0000  Ry
     charge density cutoff     =     200.0000  Ry
     convergence threshold     =      1.0E-10
     mixing beta               =       0.7000
     number of iterations used =            8  local-TF  mixing
     Exchange-correlation      = PBE ( 1  4  3  4 0 0)
     nstep                     =           50


     celldm(1)=  33.517128  celldm(2)=   0.000000  celldm(3)=   0.000000
     celldm(4)=   0.000000  celldm(5)=   0.000000  celldm(6)=   0.000000

     crystal axes: (cart. coord. in units of alat)
               a(1) = (  -0.500000   0.000000   0.500000 )  
               a(2) = (   0.000000   0.500000   0.500000 )  
               a(3) = (  -0.500000   0.500000   0.000000 )  

     reciprocal axes: (cart. coord. in units 2 pi/alat)
               b(1) = ( -1.000000 -1.000000  1.000000 )  
               b(2) = (  1.000000  1.000000  1.000000 )  
               b(3) = ( -1.000000  1.000000 -1.000000 )  


     PseudoPot. # 1 for C  read from file:
     ~/PseudoPotential/upf/C_ONCV_PBE-1.0.upf
     MD5 check sum: Not computed, couldn't open file
     Pseudo is Norm-conserving, Zval =  4.0
     Generated using ONCVPSP code by D. R. Hamann
     Using radial grid of  602 points,  4 beta functions with: 
                l(1) =   0
                l(2) =   0
                l(3) =   1
                l(4) =   1

     PseudoPot. # 2 for N  read from file:
     ~/PseudoPotential/upf/N_ONCV_PBE-1.0.upf
     MD5 check sum: Not computed, couldn't open file
     Pseudo is Norm-conserving, Zval =  5.0
     Generated using ONCVPSP code by D. R. Hamann
     Using radial grid of  602 points,  4 beta functions with: 
                l(1) =   0
                l(2) =   0
                l(3) =   1
                l(4) =   1

     atomic species   valence    mass     pseudopotential
        C              4.00    12.01100     C ( 1.00)
        N              5.00    14.00670     N ( 1.00)

     No symmetry found



   Cartesian axes

     site n.     atom                  positions (alat units)
         1           C   tau(   1) = (   0.0000000   0.0000000   0.0000000  )
         2           C   tau(   2) = (  -0.0500000   0.0500000   0.0500000  )
         3           C   tau(   3) = (  -0.1000000   0.1000000   0.0000000  )
         4           C   tau(   4) = (  -0.1500000   0.1500000   0.0500000  )
         5           C   tau(   5) = (  -0.2000000   0.2000000   0.0000000  )
         6           C   tau(   6) = (  -0.2500000   0.2500000   0.0500000  )
         7           C   tau(   7) = (  -0.3000000   0.3000000   0.0000000  )
         8           C   tau(   8) = (  -0.3500000   0.3500000   0.0500000  )
         9           C   tau(   9) = (  -0.4000000   0.4000000   0.0000000  )
        10           C   tau(  10) = (  -0.4500000   0.4500000   0.0500000  )
        11           C   tau(  11) = (   0.0000000   0.1000000   0.1000000  )
        12           C   tau(  12) = (  -0.0500000   0.1500000   0.1500000  )
        13           C   tau(  13) = (  -0.1000000   0.2000000   0.1000000  )
        14           C   tau(  14) = (  -0.1500000   0.2500000   0.1500000  )
        15           C   tau(  15) = (  -0.2000000   0.3000000   0.1000000  )
        16           C   tau(  16) = (  -0.2500000   0.3500000   0.1500000  )
        17           C   tau(  17) = (  -0.3000000   0.4000000   0.1000000  )
        18           C   tau(  18) = (  -0.3500000   0.4500000   0.1500000  )
        19           C   tau(  19) = (  -0.4000000   0.5000000   0.1000000  )
        20           C   tau(  20) = (  -0.4500000   0.5500000   0.1500000  )
        21           C   tau(  21) = (   0.0000000   0.2000000   0.2000000  )
        22           C   tau(  22) = (  -0.0500000   0.2500000   0.2500000  )
        23           C   tau(  23) = (  -0.1000000   0.3000000   0.2000000  )
        24           C   tau(  24) = (  -0.1500000   0.3500000   0.2500000  )
        25           C   tau(  25) = (  -0.2000000   0.4000000   0.2000000  )
        26           C   tau(  26) = (  -0.2500000   0.4500000   0.2500000  )
        27           C   tau(  27) = (  -0.3000000   0.5000000   0.2000000  )
        28           C   tau(  28) = (  -0.3500000   0.5500000   0.2500000  )
        29           C   tau(  29) = (  -0.4000000   0.6000000   0.2000000  )
        30           C   tau(  30) = (  -0.4500000   0.6500000   0.2500000  )
        31           C   tau(  31) = (   0.0000000   0.3000000   0.3000000  )
        32           C   tau(  32) = (  -0.0500000   0.3500000   0.3500000  )
        33           C   tau(  33) = (  -0.1000000   0.4000000   0.3000000  )
        34           C   tau(  34) = (  -0.1500000   0.4500000   0.3500000  )
        35           C   tau(  35) = (  -0.2000000   0.5000000   0.3000000  )
        36           C   tau(  36) = (  -0.2500000   0.5500000   0.3500000  )
        37           C   tau(  37) = (  -0.3000000   0.6000000   0.3000000  )
        38           C   tau(  38) = (  -0.3500000   0.6500000   0.3500000  )
        39           C   tau(  39) = (  -0.4000000   0.7000000   0.3000000  )
        40           C   tau(  40) = (  -0.4500000   0.7500000   0.3500000  )
        41           C   tau(  41) = (   0.0000000   0.4000000   0.4000000  )
        42           C   tau(  42) = (  -0.0500000   0.4500000   0.4500000  )
        43           C   tau(  43) = (  -0.1000000   0.5000000   0.4000000  )
        44           C   tau(  44) = (  -0.1500000   0.5500000   0.4500000  )
        45           C   tau(  45) = (  -0.2000000   0.6000000   0.4000000  )
        46           C   tau(  46) = (  -0.2500000   0.6500000   0.4500000  )
        47           C   tau(  47) = (  -0.3000000   0.7000000   0.4000000  )
        48           C   tau(  48) = (  -0.3500000   0.7500000   0.4500000  )
        49           C   tau(  49) = (  -0.4000000   0.8000000   0.4000000  )
        50           C   tau(  50) = (  -0.4500000   0.8500000   0.4500000  )
        51           C   tau(  51) = (  -0.1000000   0.0000000   0.1000000  )
        52           C   tau(  52) = (  -0.1500000   0.0500000   0.1500000  )
        53           C   tau(  53) = (  -0.2000000   0.1000000   0.1000000  )
        54           C   tau(  54) = (  -0.2500000   0.1500000   0.1500000  )
        55           C   tau(  55) = (  -0.3000000   0.2000000   0.1000000  )
        56           C   tau(  56) = (  -0.3500000   0.2500000   0.1500000  )
        57           C   tau(  57) = (  -0.4000000   0.3000000   0.1000000  )
        58           C   tau(  58) = (  -0.4500000   0.3500000   0.1500000  )
        59           C   tau(  59) = (  -0.5000000   0.4000000   0.1000000  )
        60           C   tau(  60) = (  -0.5500000   0.4500000   0.1500000  )
        61           C   tau(  61) = (  -0.1000000   0.1000000   0.2000000  )
        62           C   tau(  62) = (  -0.1500000   0.1500000   0.2500000  )
        63           C   tau(  63) = (  -0.2000000   0.2000000   0.2000000  )
        64           C   tau(  64) = (  -0.2500000   0.2500000   0.2500000  )
        65           C   tau(  65) = (  -0.3000000   0.3000000   0.2000000  )
        66           C   tau(  66) = (  -0.3500000   0.3500000   0.2500000  )
        67           C   tau(  67) = (  -0.4000000   0.4000000   0.2000000  )
        68           C   tau(  68) = (  -0.4500000   0.4500000   0.2500000  )
        69           C   tau(  69) = (  -0.5000000   0.5000000   0.2000000  )
        70           C   tau(  70) = (  -0.5500000   0.5500000   0.2500000  )
        71           C   tau(  71) = (  -0.1000000   0.2000000   0.3000000  )
        72           C   tau(  72) = (  -0.1500000   0.2500000   0.3500000  )
        73           C   tau(  73) = (  -0.2000000   0.3000000   0.3000000  )
        74           C   tau(  74) = (  -0.2500000   0.3500000   0.3500000  )
        75           C   tau(  75) = (  -0.3000000   0.4000000   0.3000000  )
        76           C   tau(  76) = (  -0.3500000   0.4500000   0.3500000  )
        77           C   tau(  77) = (  -0.4000000   0.5000000   0.3000000  )
        78           C   tau(  78) = (  -0.4500000   0.5500000   0.3500000  )
        79           C   tau(  79) = (  -0.5000000   0.6000000   0.3000000  )
        80           C   tau(  80) = (  -0.5500000   0.6500000   0.3500000  )
        81           C   tau(  81) = (  -0.1000000   0.3000000   0.4000000  )
        82           C   tau(  82) = (  -0.1500000   0.3500000   0.4500000  )
        83           C   tau(  83) = (  -0.2000000   0.4000000   0.4000000  )
        84           C   tau(  84) = (  -0.2500000   0.4500000   0.4500000  )
        85           C   tau(  85) = (  -0.3000000   0.5000000   0.4000000  )
        86           C   tau(  86) = (  -0.3500000   0.5500000   0.4500000  )
        87           C   tau(  87) = (  -0.4000000   0.6000000   0.4000000  )
        88           C   tau(  88) = (  -0.4500000   0.6500000   0.4500000  )
        89           C   tau(  89) = (  -0.5000000   0.7000000   0.4000000  )
        90           C   tau(  90) = (  -0.5500000   0.7500000   0.4500000  )
        91           C   tau(  91) = (  -0.1000000   0.4000000   0.5000000  )
        92           C   tau(  92) = (  -0.1500000   0.4500000   0.5500000  )
        93           C   tau(  93) = (  -0.2000000   0.5000000   0.5000000  )
        94           C   tau(  94) = (  -0.2500000   0.5500000   0.5500000  )
        95           C   tau(  95) = (  -0.3000000   0.6000000   0.5000000  )
        96           C   tau(  96) = (  -0.3500000   0.6500000   0.5500000  )
        97           C   tau(  97) = (  -0.4000000   0.7000000   0.5000000  )
        98           C   tau(  98) = (  -0.4500000   0.7500000   0.5500000  )
        99           C   tau(  99) = (  -0.5000000   0.8000000   0.5000000  )
       100           C   tau( 100) = (  -0.5500000   0.8500000   0.5500000  )
       101           C   tau( 101) = (  -0.2000000   0.0000000   0.2000000  )
       102           C   tau( 102) = (  -0.2500000   0.0500000   0.2500000  )
       103           C   tau( 103) = (  -0.3000000   0.1000000   0.2000000  )
       104           C   tau( 104) = (  -0.3500000   0.1500000   0.2500000  )
       105           C   tau( 105) = (  -0.4000000   0.2000000   0.2000000  )
       106           C   tau( 106) = (  -0.4500000   0.2500000   0.2500000  )
       107           C   tau( 107) = (  -0.5000000   0.3000000   0.2000000  )
       108           C   tau( 108) = (  -0.5500000   0.3500000   0.2500000  )
       109           C   tau( 109) = (  -0.6000000   0.4000000   0.2000000  )
       110           C   tau( 110) = (  -0.6500000   0.4500000   0.2500000  )
       111           C   tau( 111) = (  -0.2000000   0.1000000   0.3000000  )
       112           C   tau( 112) = (  -0.2500000   0.1500000   0.3500000  )
       113           C   tau( 113) = (  -0.3000000   0.2000000   0.3000000  )
       114           C   tau( 114) = (  -0.3500000   0.2500000   0.3500000  )
       115           C   tau( 115) = (  -0.4000000   0.3000000   0.3000000  )
       116           C   tau( 116) = (  -0.4500000   0.3500000   0.3500000  )
       117           C   tau( 117) = (  -0.5000000   0.4000000   0.3000000  )
       118           C   tau( 118) = (  -0.5500000   0.4500000   0.3500000  )
       119           C   tau( 119) = (  -0.6000000   0.5000000   0.3000000  )
       120           C   tau( 120) = (  -0.6500000   0.5500000   0.3500000  )
       121           C   tau( 121) = (  -0.2000000   0.2000000   0.4000000  )
       122           C   tau( 122) = (  -0.2500000   0.2500000   0.4500000  )
       123           C   tau( 123) = (  -0.3000000   0.3000000   0.4000000  )
       124           C   tau( 124) = (  -0.3500000   0.3500000   0.4500000  )
       125           N   tau( 125) = (  -0.4000000   0.4000000   0.4000000  )
       126           N   tau( 126) = (  -0.4500000   0.4500000   0.4500000  )
       127           C   tau( 127) = (  -0.5000000   0.5000000   0.4000000  )
       128           C   tau( 128) = (  -0.5500000   0.5500000   0.4500000  )
       129           C   tau( 129) = (  -0.6000000   0.6000000   0.4000000  )
       130           C   tau( 130) = (  -0.6500000   0.6500000   0.4500000  )
       131           C   tau( 131) = (  -0.2000000   0.3000000   0.5000000  )
       132           C   tau( 132) = (  -0.2500000   0.3500000   0.5500000  )
       133           C   tau( 133) = (  -0.3000000   0.4000000   0.5000000  )
       134           C   tau( 134) = (  -0.3500000   0.4500000   0.5500000  )
       135           C   tau( 135) = (  -0.4000000   0.5000000   0.5000000  )
       136           C   tau( 136) = (  -0.4500000   0.5500000   0.5500000  )
       137           C   tau( 137) = (  -0.5000000   0.6000000   0.5000000  )
       138           C   tau( 138) = (  -0.5500000   0.6500000   0.5500000  )
       139           C   tau( 139) = (  -0.6000000   0.7000000   0.5000000  )
       140           C   tau( 140) = (  -0.6500000   0.7500000   0.5500000  )
       141           C   tau( 141) = (  -0.2000000   0.4000000   0.6000000  )
       142           C   tau( 142) = (  -0.2500000   0.4500000   0.6500000  )
       143           C   tau( 143) = (  -0.3000000   0.5000000   0.6000000  )
       144           C   tau( 144) = (  -0.3500000   0.5500000   0.6500000  )
       145           C   tau( 145) = (  -0.4000000   0.6000000   0.6000000  )
       146           C   tau( 146) = (  -0.4500000   0.6500000   0.6500000  )
       147           C   tau( 147) = (  -0.5000000   0.7000000   0.6000000  )
       148           C   tau( 148) = (  -0.5500000   0.7500000   0.6500000  )
       149           C   tau( 149) = (  -0.6000000   0.8000000   0.6000000  )
       150           C   tau( 150) = (  -0.6500000   0.8500000   0.6500000  )
       151           C   tau( 151) = (  -0.3000000   0.0000000   0.3000000  )
       152           C   tau( 152) = (  -0.3500000   0.0500000   0.3500000  )
       153           C   tau( 153) = (  -0.4000000   0.1000000   0.3000000  )
       154           C   tau( 154) = (  -0.4500000   0.1500000   0.3500000  )
       155           C   tau( 155) = (  -0.5000000   0.2000000   0.3000000  )
       156           C   tau( 156) = (  -0.5500000   0.2500000   0.3500000  )
       157           C   tau( 157) = (  -0.6000000   0.3000000   0.3000000  )
       158           C   tau( 158) = (  -0.6500000   0.3500000   0.3500000  )
       159           C   tau( 159) = (  -0.7000000   0.4000000   0.3000000  )
       160           C   tau( 160) = (  -0.7500000   0.4500000   0.3500000  )
       161           C   tau( 161) = (  -0.3000000   0.1000000   0.4000000  )
       162           C   tau( 162) = (  -0.3500000   0.1500000   0.4500000  )
       163           C   tau( 163) = (  -0.4000000   0.2000000   0.4000000  )
       164           C   tau( 164) = (  -0.4500000   0.2500000   0.4500000  )
       165           C   tau( 165) = (  -0.5000000   0.3000000   0.4000000  )
       166           C   tau( 166) = (  -0.5500000   0.3500000   0.4500000  )
       167           C   tau( 167) = (  -0.6000000   0.4000000   0.4000000  )
       168           C   tau( 168) = (  -0.6500000   0.4500000   0.4500000  )
       169           C   tau( 169) = (  -0.7000000   0.5000000   0.4000000  )
       170           C   tau( 170) = (  -0.7500000   0.5500000   0.4500000  )
       171           C   tau( 171) = (  -0.3000000   0.2000000   0.5000000  )
       172           C   tau( 172) = (  -0.3500000   0.2500000   0.5500000  )
       173           C   tau( 173) = (  -0.4000000   0.3000000   0.5000000  )
       174           C   tau( 174) = (  -0.4500000   0.3500000   0.5500000  )
       175           C   tau( 175) = (  -0.5000000   0.4000000   0.5000000  )
       176           C   tau( 176) = (  -0.5500000   0.4500000   0.5500000  )
       177           C   tau( 177) = (  -0.6000000   0.5000000   0.5000000  )
       178           C   tau( 178) = (  -0.6500000   0.5500000   0.5500000  )
       179           C   tau( 179) = (  -0.7000000   0.6000000   0.5000000  )
       180           C   tau( 180) = (  -0.7500000   0.6500000   0.5500000  )
       181           C   tau( 181) = (  -0.3000000   0.3000000   0.6000000  )
       182           C   tau( 182) = (  -0.3500000   0.3500000   0.6500000  )
       183           C   tau( 183) = (  -0.4000000   0.4000000   0.6000000  )
       184           C   tau( 184) = (  -0.4500000   0.4500000   0.6500000  )
       185           C   tau( 185) = (  -0.5000000   0.5000000   0.6000000  )
       186           C   tau( 186) = (  -0.5500000   0.5500000   0.6500000  )
       187           C   tau( 187) = (  -0.6000000   0.6000000   0.6000000  )
       188           C   tau( 188) = (  -0.6500000   0.6500000   0.6500000  )
       189           C   tau( 189) = (  -0.7000000   0.7000000   0.6000000  )
       190           C   tau( 190) = (  -0.7500000   0.7500000   0.6500000  )
       191           C   tau( 191) = (  -0.3000000   0.4000000   0.7000000  )
       192           C   tau( 192) = (  -0.3500000   0.4500000   0.7500000  )
       193           C   tau( 193) = (  -0.4000000   0.5000000   0.7000000  )
       194           C   tau( 194) = (  -0.4500000   0.5500000   0.7500000  )
       195           C   tau( 195) = (  -0.5000000   0.6000000   0.7000000  )
       196           C   tau( 196) = (  -0.5500000   0.6500000   0.7500000  )
       197           C   tau( 197) = (  -0.6000000   0.7000000   0.7000000  )
       198           C   tau( 198) = (  -0.6500000   0.7500000   0.7500000  )
       199           C   tau( 199) = (  -0.7000000   0.8000000   0.7000000  )
       200           C   tau( 200) = (  -0.7500000   0.8500000   0.7500000  )
       201           C   tau( 201) = (  -0.4000000   0.0000000   0.4000000  )
       202           C   tau( 202) = (  -0.4500000   0.0500000   0.4500000  )
       203           C   tau( 203) = (  -0.5000000   0.1000000   0.4000000  )
       204           C   tau( 204) = (  -0.5500000   0.1500000   0.4500000  )
       205           C   tau( 205) = (  -0.6000000   0.2000000   0.4000000  )
       206           C   tau( 206) = (  -0.6500000   0.2500000   0.4500000  )
       207           C   tau( 207) = (  -0.7000000   0.3000000   0.4000000  )
       208           C   tau( 208) = (  -0.7500000   0.3500000   0.4500000  )
       209           C   tau( 209) = (  -0.8000000   0.4000000   0.4000000  )
       210           C   tau( 210) = (  -0.8500000   0.4500000   0.4500000  )
       211           C   tau( 211) = (  -0.4000000   0.1000000   0.5000000  )
       212           C   tau( 212) = (  -0.4500000   0.1500000   0.5500000  )
       213           C   tau( 213) = (  -0.5000000   0.2000000   0.5000000  )
       214           C   tau( 214) = (  -0.5500000   0.2500000   0.5500000  )
       215           C   tau( 215) = (  -0.6000000   0.3000000   0.5000000  )
       216           C   tau( 216) = (  -0.6500000   0.3500000   0.5500000  )
       217           C   tau( 217) = (  -0.7000000   0.4000000   0.5000000  )
       218           C   tau( 218) = (  -0.7500000   0.4500000   0.5500000  )
       219           C   tau( 219) = (  -0.8000000   0.5000000   0.5000000  )
       220           C   tau( 220) = (  -0.8500000   0.5500000   0.5500000  )
       221           C   tau( 221) = (  -0.4000000   0.2000000   0.6000000  )
       222           C   tau( 222) = (  -0.4500000   0.2500000   0.6500000  )
       223           C   tau( 223) = (  -0.5000000   0.3000000   0.6000000  )
       224           C   tau( 224) = (  -0.5500000   0.3500000   0.6500000  )
       225           C   tau( 225) = (  -0.6000000   0.4000000   0.6000000  )
       226           C   tau( 226) = (  -0.6500000   0.4500000   0.6500000  )
       227           C   tau( 227) = (  -0.7000000   0.5000000   0.6000000  )
       228           C   tau( 228) = (  -0.7500000   0.5500000   0.6500000  )
       229           C   tau( 229) = (  -0.8000000   0.6000000   0.6000000  )
       230           C   tau( 230) = (  -0.8500000   0.6500000   0.6500000  )
       231           C   tau( 231) = (  -0.4000000   0.3000000   0.7000000  )
       232           C   tau( 232) = (  -0.4500000   0.3500000   0.7500000  )
       233           C   tau( 233) = (  -0.5000000   0.4000000   0.7000000  )
       234           C   tau( 234) = (  -0.5500000   0.4500000   0.7500000  )
       235           C   tau( 235) = (  -0.6000000   0.5000000   0.7000000  )
       236           C   tau( 236) = (  -0.6500000   0.5500000   0.7500000  )
       237           C   tau( 237) = (  -0.7000000   0.6000000   0.7000000  )
       238           C   tau( 238) = (  -0.7500000   0.6500000   0.7500000  )
       239           C   tau( 239) = (  -0.8000000   0.7000000   0.7000000  )
       240           C   tau( 240) = (  -0.8500000   0.7500000   0.7500000  )
       241           C   tau( 241) = (  -0.4000000   0.4000000   0.8000000  )
       242           C   tau( 242) = (  -0.4500000   0.4500000   0.8500000  )
       243           C   tau( 243) = (  -0.5000000   0.5000000   0.8000000  )
       244           C   tau( 244) = (  -0.5500000   0.5500000   0.8500000  )
       245           C   tau( 245) = (  -0.6000000   0.6000000   0.8000000  )
       246           C   tau( 246) = (  -0.6500000   0.6500000   0.8500000  )
       247           C   tau( 247) = (  -0.7000000   0.7000000   0.8000000  )
       248           C   tau( 248) = (  -0.7500000   0.7500000   0.8500000  )
       249           C   tau( 249) = (  -0.8000000   0.8000000   0.8000000  )
       250           C   tau( 250) = (  -0.8500000   0.8500000   0.8500000  )

     number of k points=     1
                       cart. coord. in units 2pi/alat
        k(    1) = (   0.0000000   0.0000000   0.0000000), wk =   2.0000000

     Dense  grid:   450159 G-vectors     FFT dimensions: ( 108, 108, 108)

     Estimated max dynamical RAM per process >      80.69MB

     Estimated total allocated dynamical RAM >    6455.43MB

     Initial potential from superposition of free atoms

     starting charge 1000.26714, renormalised to 1002.00000
     Starting wfc are random

     total cpu time spent up to now is        2.7 secs

     per-process dynamical memory:    81.5 Mb

     Self-consistent Calculation

     iteration #  1     ecut=    50.00 Ry     beta=0.70
     Davidson diagonalization with overlap
     ethr =  1.00E-02,  avg # of iterations = 11.0

     total cpu time spent up to now is       31.9 secs

     total energy              =   -2862.71396465 Ry
     Harris-Foulkes estimate   =   -2867.47463824 Ry
     estimated scf accuracy    <      15.12789263 Ry

     iteration #  2     ecut=    50.00 Ry     beta=0.70
     Davidson diagonalization with overlap
     ethr =  1.51E-03,  avg # of iterations = 11.0

     total cpu time spent up to now is       47.8 secs

     total energy              =   -2861.99921371 Ry
     Harris-Foulkes estimate   =   -2863.38478197 Ry
     estimated scf accuracy    <       3.33838136 Ry

     iteration #  3     ecut=    50.00 Ry     beta=0.70
     Davidson diagonalization with overlap
     ethr =  3.33E-04,  avg # of iterations =  4.0

     total cpu time spent up to now is       55.9 secs

     total energy              =   -2862.36193743 Ry
     Harris-Foulkes estimate   =   -2862.36054753 Ry
     estimated scf accuracy    <       0.10840143 Ry

     iteration #  4     ecut=    50.00 Ry     beta=0.70
     Davidson diagonalization with overlap
     c_bands:  1 eigenvalues not converged
     ethr =  1.08E-05,  avg # of iterations = 20.0

     total cpu time spent up to now is       99.9 secs

     total energy              =   -2862.39305414 Ry
     Harris-Foulkes estimate   =   -2862.38724155 Ry
     estimated scf accuracy    <       0.01595923 Ry

     iteration #  5     ecut=    50.00 Ry     beta=0.70
     Davidson diagonalization with overlap
     ethr =  1.59E-06,  avg # of iterations =  6.0

     total cpu time spent up to now is      112.0 secs

     total energy              =   -2862.39484977 Ry
     Harris-Foulkes estimate   =   -2862.39511366 Ry
     estimated scf accuracy    <       0.00318730 Ry

     iteration #  6     ecut=    50.00 Ry     beta=0.70
     Davidson diagonalization with overlap
     ethr =  3.18E-07,  avg # of iterations = 18.0

     total cpu time spent up to now is      133.9 secs

     total energy              =   -2862.39445722 Ry
     Harris-Foulkes estimate   =   -2862.39494602 Ry
     estimated scf accuracy    <       0.00207493 Ry

     iteration #  7     ecut=    50.00 Ry     beta=0.70
     Davidson diagonalization with overlap
     ethr =  2.07E-07,  avg # of iterations =  8.0

     total cpu time spent up to now is      148.6 secs

     total energy              =   -2862.39464053 Ry
     Harris-Foulkes estimate   =   -2862.39471858 Ry
     estimated scf accuracy    <       0.00022118 Ry

     iteration #  8     ecut=    50.00 Ry     beta=0.70
     Davidson diagonalization with overlap
     ethr =  2.21E-08,  avg # of iterations = 10.0

     total cpu time spent up to now is      168.8 secs

     total energy              =   -2862.39467911 Ry
     Harris-Foulkes estimate   =   -2862.39468186 Ry
     estimated scf accuracy    <       0.00002293 Ry

     iteration #  9     ecut=    50.00 Ry     beta=0.70
     Davidson diagonalization with overlap
     c_bands:  1 eigenvalues not converged
     ethr =  2.29E-09,  avg # of iterations = 20.0

     total cpu time spent up to now is      191.1 secs

     total energy              =   -2862.39467693 Ry
     Harris-Foulkes estimate   =   -2862.39468049 Ry
     estimated scf accuracy    <       0.00001144 Ry

     iteration # 10     ecut=    50.00 Ry     beta=0.70
     Davidson diagonalization with overlap
     ethr =  1.14E-09,  avg # of iterations =  9.0

     total cpu time spent up to now is      208.6 secs

     total energy              =   -2862.39467865 Ry
     Harris-Foulkes estimate   =   -2862.39467865 Ry
     estimated scf accuracy    <       0.00000102 Ry

     iteration # 11     ecut=    50.00 Ry     beta=0.70
     Davidson diagonalization with overlap
     ethr =  1.02E-10,  avg # of iterations = 19.0

     total cpu time spent up to now is      239.7 secs

     total energy              =   -2862.39467869 Ry
     Harris-Foulkes estimate   =   -2862.39467880 Ry
     estimated scf accuracy    <       0.00000037 Ry

     iteration # 12     ecut=    50.00 Ry     beta=0.70
     Davidson diagonalization with overlap
     ethr =  3.73E-11,  avg # of iterations =  9.0

     total cpu time spent up to now is      254.9 secs

     total energy              =   -2862.39467871 Ry
     Harris-Foulkes estimate   =   -2862.39467873 Ry
     estimated scf accuracy    <       0.00000007 Ry

     iteration # 13     ecut=    50.00 Ry     beta=0.70
     Davidson diagonalization with overlap
     ethr =  6.90E-12,  avg # of iterations = 10.0

     total cpu time spent up to now is      276.0 secs

     total energy              =   -2862.39467872 Ry
     Harris-Foulkes estimate   =   -2862.39467872 Ry
     estimated scf accuracy    <       0.00000001 Ry

     iteration # 14     ecut=    50.00 Ry     beta=0.70
     Davidson diagonalization with overlap
     ethr =  1.09E-12,  avg # of iterations =  7.0

     total cpu time spent up to now is      290.9 secs

     total energy              =   -2862.39467872 Ry
     Harris-Foulkes estimate   =   -2862.39467872 Ry
     estimated scf accuracy    <          2.4E-09 Ry

     iteration # 15     ecut=    50.00 Ry     beta=0.70
     Davidson diagonalization with overlap
     ethr =  2.40E-13,  avg # of iterations =  6.0

     total cpu time spent up to now is      300.8 secs

     total energy              =   -2862.39467872 Ry
     Harris-Foulkes estimate   =   -2862.39467872 Ry
     estimated scf accuracy    <          8.0E-10 Ry

     iteration # 16     ecut=    50.00 Ry     beta=0.70
     Davidson diagonalization with overlap
     ethr =  1.00E-13,  avg # of iterations =  7.0

     total cpu time spent up to now is      313.7 secs

     total energy              =   -2862.39467872 Ry
     Harris-Foulkes estimate   =   -2862.39467872 Ry
     estimated scf accuracy    <          1.8E-10 Ry

     iteration # 17     ecut=    50.00 Ry     beta=0.70
     Davidson diagonalization with overlap
     ethr =  1.00E-13,  avg # of iterations =  5.0

     total cpu time spent up to now is      320.9 secs

     End of self-consistent calculation

          k = 0.0000 0.0000 0.0000 ( 56233 PWs)   bands (ev):

    -8.8247  -7.8561  -7.0657  -6.9537  -6.9537  -6.9104  -6.9104  -6.9016
    -6.8976  -6.6672  -6.6247  -6.5616  -6.5616  -6.5389  -6.5389  -5.8480
    -5.6075  -5.1516  -5.1516  -5.1212  -5.1212  -5.1015  -5.0957  -5.0866
    -5.0866  -5.0844  -5.0844  -4.6369  -4.6319  -4.1387  -4.1387  -4.0774
    -4.0774  -4.0594  -4.0594  -4.0308  -4.0308  -4.0253  -4.0253  -4.0219
    -4.0216  -4.0158  -4.0127  -4.0127  -4.0110  -4.0110  -4.0058  -4.0058
    -4.0052  -4.0052  -4.0019  -3.7742  -3.7561  -3.7339  -3.7339  -3.7139
    -3.7121  -3.7121  -3.7012  -2.7294  -2.5743  -2.2756  -2.2756  -2.2652
    -2.2652  -2.0713  -2.0711  -1.7110  -1.7110  -1.6421  -1.6385  -1.6385
    -1.5917  -1.5917  -1.5902  -1.5902  -1.5763  -1.5704  -1.5648  -1.5648
    -1.5577  -1.5577  -1.5523  -1.5523  -1.5482  -1.5455  -1.5455  -1.5379
    -1.5375  -1.2604  -1.1893  -1.0903  -1.0903  -1.0865  -1.0865  -1.0509
    -1.0416  -1.0288  -1.0288  -1.0234  -1.0234  -1.0157  -1.0157  -1.0136
    -1.0136  -1.0106  -1.0005  -0.9968  -0.9968  -0.9960  -0.9927  -0.9907
    -0.9907   0.2621   0.5915   0.7841   0.7841   0.7905   0.7905   0.8380
     0.8460   0.8460   0.8484   0.8484   0.8606   1.0134   1.0665   1.0665
     1.0924   1.2612   1.2778   1.2820   1.2820   1.2924   1.2924   1.3125
     1.3125   1.3331   1.3354   1.3354   1.3371   1.3371   1.3378   1.3405
     1.3405   1.3532   1.3532   1.3534   1.3632   1.4104   1.4235   1.4301
     1.4301   1.4343   1.4343   1.4435   1.4515   1.4515   1.4560   1.4560
     1.4676   2.0452   2.0642   2.0745   2.0745   2.0967   2.1023   2.1023
     2.1141   2.9339   3.1184   3.2696   3.2696   3.2865   3.2865   3.3678
     3.3718   3.3971   3.3971   3.4018   3.4018   3.4122   3.4122   3.4178
     3.4204   3.4204   3.4307   3.4332   3.4358   3.4358   3.4423   3.4430
     3.4430   4.0514   4.0859   4.1014   4.1014   4.1169   4.1169   4.2547
     4.3970   4.3970   4.5671   4.5949   4.5949   4.6583   4.7139   4.7139
     4.7144   4.7265   4.7291   4.7291   4.7321   4.7321   4.7504   4.7594
     4.7594   4.7598   4.7631   4.7651   4.7697   4.7697   4.7741   4.7741
     4.7787   4.7787   4.7798   4.7798   4.7810   4.7810   4.7820   4.7840
     4.7861   4.7896   4.7896   5.0490   5.1065   5.1065   5.1314   5.1314
     5.1868   5.1927   5.1927   5.1934   5.1996   5.1996   5.2037   5.2099
     5.2185   5.2185   5.2198   5.2199   5.2199   5.2259   5.2268   5.2268
     5.2349   5.2367   5.2367   6.3637   6.4125   6.4673   6.4673   6.4933
     6.4933   6.6010   6.6071   6.6106   6.6106   6.6200   6.6200   6.6914
     6.8420   6.8420   6.8448   6.8448   7.0681   7.1042   7.1076   7.1108
     7.1108   7.1321   7.1321   7.1323   7.1518   7.1665   7.1665   7.1680
     7.1680   7.1750   7.1750   7.1875   7.1880   7.1880   7.1899   7.1929
     7.1929   7.1964   7.2005   7.2029   7.2029   7.2058   7.2096   7.2096
     7.2106   7.2106   7.2127   7.2191   7.2226   7.2226   7.2228   7.2228
     7.2264   7.2324   7.2347   7.2347   7.2381   7.2430   7.2430   7.4758
     7.4770   7.4770   7.4991   7.4991   7.5303   7.5397   7.5435   7.5663
     7.5663   7.5674   7.5674   7.5839   7.5839   7.5871   7.5871   7.5893
     7.6078   7.6370   7.6396   7.6396   7.6412   7.6412   7.6414   7.8442
     7.8486   7.8486   7.8510   7.8510   7.8701   7.8769   7.8778   7.8807
     7.8807   7.8868   7.8868   8.5278   8.5278   8.5460   8.5947   8.6699
     8.6699   8.6929   8.7115   8.7720   8.7782   8.7782   8.7918   8.7918
     8.8186   8.8565   8.8734   8.8734   8.8956   8.8974   8.9027   8.9027
     8.9047   8.9047   8.9072   8.9072   8.9145   8.9213   8.9213   8.9226
     8.9226   8.9232   8.9242   9.0837   9.0837   9.0926   9.1064   9.1064
     9.1572   9.1583   9.1633   9.1670   9.1670   9.1747   9.1747   9.1817
     9.1817   9.1837   9.1882   9.1934   9.1934   9.1999   9.1999   9.2009
     9.2020   9.2036   9.2036   9.6243   9.6359   9.6359   9.6683   9.6683
     9.7144   9.7279   9.7397   9.7397   9.7407   9.7407   9.7527   9.7688
     9.7756   9.7756   9.7773   9.7773   9.7794   9.7794   9.7870   9.7900
     9.7900   9.7911   9.7936  10.2771  10.2771  10.2944  10.3391  10.3391
    10.3551  10.3793  10.3827  10.3827  10.3894  10.3922  10.3922  10.4842
    10.5354  10.5354  10.5398  10.5556  10.5556  10.9029  10.9035  10.9035
    10.9078  10.9078  10.9598  10.9640  10.9640  11.0155  11.0156  11.0158
    11.0158  11.0162  11.0162  11.0369  11.0369  11.5549  11.5549  11.5705
    11.6152  11.6152  11.6365  11.6384  11.6384  11.6451  11.6614  11.6614
    11.6645  12.1904  12.1904  12.2099  12.3034  12.3034  12.3183  12.3200
    12.3200  12.3200  12.3231  12.3231  12.3333  12.3335  12.3335  12.3393
    12.3393  13.6480  13.6480  13.6547  17.2409  17.4973  17.8537  17.8537
    17.8590  17.8590  18.1416  18.2873  18.3627  18.3627  18.4354  18.4354
    18.5042  18.7955  18.9484  19.0116  19.0116  19.0320  19.0320  19.0755
    19.0755  19.0839  19.0839  19.0839  19.1831  19.2384  19.2384  19.4068
    19.5006  19.5924  19.6629  19.6629  19.6970  19.6970  19.8279  19.8279
    19.8330  19.8354  19.8354  19.8381  19.8385  19.8385  19.8436  19.8457
    19.8457  19.8472  19.8488  19.8488  19.8510  19.8544  19.8544  19.9171
    19.9336  19.9374  19.9374  19.9377  19.9377  20.3480  20.4526  20.6914
    20.6914  20.7028  20.7028  20.7950  20.9621  20.9621  20.9670  20.9670
    20.9962  20.9964  20.9999  20.9999  21.0004  21.0090  21.0125  21.0125
    21.0161  21.0161  21.0206  21.0213  21.0213  21.0234  21.0251  21.0251
    21.0538  21.0538  21.0596  21.0683  21.0702  21.0702  21.0748  21.0748
    21.0858  21.0864  21.0864  21.0912  21.0912  21.3432  21.4475  21.4697

     highest occupied, lowest unoccupied level (ev):    17.2409   17.4973

!    total energy              =   -2862.39467872 Ry
     Harris-Foulkes estimate   =   -2862.39467872 Ry
     estimated scf accuracy    <          6.2E-11 Ry

     The total energy is the sum of the following terms:

     one-electron contribution =    1016.39508662 Ry
     hartree contribution      =     244.41124635 Ry
     xc contribution           =    -896.13378180 Ry
     ewald contribution        =   -3227.06722988 Ry

     convergence has been achieved in  17 iterations

     Forces acting on atoms (cartesian axes, Ry/au):

     atom    1 type  1   force =    -0.00001289    0.00001289    0.00001290
     atom    2 type  1   force =    -0.00024524    0.00024523    0.00024523
     atom    3 type  1   force =    -0.00015351    0.00015352   -0.00025139
     atom    4 type  1   force =     0.00063652   -0.00063653    0.00064764
     atom    5 type  1   force =    -0.00042983    0.00042984    0.00164956
     atom    6 type  1   force =    -0.00041719    0.00041720   -0.00080999
     atom    7 type  1   force =     0.00040831   -0.00040831   -0.00093682
     atom    8 type  1   force =    -0.00031404    0.00031403    0.00049257
     atom    9 type  1   force =    -0.00002770    0.00002770   -0.00134641
     atom   10 type  1   force =     0.00042029   -0.00042029    0.00099066
     atom   11 type  1   force =     0.00025140    0.00015351    0.00015351
     atom   12 type  1   force =    -0.00064765   -0.00063652   -0.00063651
     atom   13 type  1   force =    -0.00104568   -0.00098868    0.00104569
     atom   14 type  1   force =    -0.00005335    0.00102433    0.00005335
     atom   15 type  1   force =     0.00136489    0.00067295    0.00064680
     atom   16 type  1   force =    -0.00091653    0.00059648    0.00043095
     atom   17 type  1   force =    -0.00088138   -0.00067582    0.00200929
     atom   18 type  1   force =    -0.00103009   -0.00172971    0.00054259
     atom   19 type  1   force =    -0.00050290    0.00030082   -0.00058991
     atom   20 type  1   force =     0.00118099    0.00037934   -0.00153560
     atom   21 type  1   force =    -0.00164954    0.00042986    0.00042985
     atom   22 type  1   force =     0.00080997    0.00041721    0.00041719
     atom   23 type  1   force =    -0.00064680    0.00067294   -0.00136490
     atom   24 type  1   force =    -0.00043095    0.00059651    0.00091654
     atom   25 type  1   force =     0.00316545    0.00320318   -0.00316544
     atom   26 type  1   force =     0.00660671    0.00486674   -0.00660670
     atom   27 type  1   force =     0.00183260   -0.00140344   -0.00102374
     atom   28 type  1   force =     0.00610376   -0.00221270    0.00384069
     atom   29 type  1   force =    -0.00320440   -0.00178381    0.00074903
     atom   30 type  1   force =     0.00310726   -0.00058497    0.00173666
     atom   31 type  1   force =     0.00093681   -0.00040832   -0.00040832
     atom   32 type  1   force =    -0.00049255    0.00031404    0.00031403
     atom   33 type  1   force =    -0.00200927   -0.00067583    0.00088138
     atom   34 type  1   force =    -0.00054259   -0.00172969    0.00103008
     atom   35 type  1   force =     0.00102375   -0.00140343   -0.00183261
     atom   36 type  1   force =    -0.00384067   -0.00221271   -0.00610377
     atom   37 type  1   force =    -0.00067666   -0.00094708    0.00067664
     atom   38 type  1   force =     0.00050849    0.00003160   -0.00050848
     atom   39 type  1   force =    -0.00112020    0.00147868   -0.00039210
     atom   40 type  1   force =     0.00048749    0.00061669   -0.00044216
     atom   41 type  1   force =     0.00134641    0.00002769    0.00002770
     atom   42 type  1   force =    -0.00099067   -0.00042029   -0.00042029
     atom   43 type  1   force =     0.00058992    0.00030080    0.00050289
     atom   44 type  1   force =     0.00153560    0.00037935   -0.00118100
     atom   45 type  1   force =    -0.00074904   -0.00178380    0.00320439
     atom   46 type  1   force =    -0.00173668   -0.00058497   -0.00310725
     atom   47 type  1   force =     0.00039208    0.00147867    0.00112019
     atom   48 type  1   force =     0.00044217    0.00061667   -0.00048749
     atom   49 type  1   force =    -0.00054877   -0.00109585    0.00054878
     atom   50 type  1   force =     0.00004894    0.00140726   -0.00004894
     atom   51 type  1   force =    -0.00015351   -0.00025139    0.00015351
     atom   52 type  1   force =     0.00063652    0.00064765   -0.00063653
     atom   53 type  1   force =     0.00098868    0.00104569    0.00104568
     atom   54 type  1   force =    -0.00102430    0.00005334    0.00005335
     atom   55 type  1   force =    -0.00067293   -0.00136490    0.00064681
     atom   56 type  1   force =    -0.00059650    0.00091653    0.00043095
     atom   57 type  1   force =     0.00067581    0.00088137    0.00200930
     atom   58 type  1   force =     0.00172971    0.00103009    0.00054258
     atom   59 type  1   force =    -0.00030081    0.00050290   -0.00058991
     atom   60 type  1   force =    -0.00037935   -0.00118098   -0.00153560
     atom   61 type  1   force =    -0.00104570    0.00104570   -0.00098867
     atom   62 type  1   force =    -0.00005334    0.00005334    0.00102428
     atom   63 type  1   force =     0.00064803   -0.00064803   -0.00064802
     atom   64 type  1   force =     0.00012916   -0.00012916   -0.00012916
     atom   65 type  1   force =    -0.00070916    0.00070915   -0.00126618
     atom   66 type  1   force =    -0.00150680    0.00150679   -0.00210325
     atom   67 type  1   force =     0.00275966   -0.00275967   -0.00444760
     atom   68 type  1   force =     0.00132965   -0.00132966    0.00398658
     atom   69 type  1   force =    -0.00051909    0.00051911    0.00007654
     atom   70 type  1   force =     0.00085451   -0.00085450    0.00102066
     atom   71 type  1   force =    -0.00064680   -0.00136490    0.00067293
     atom   72 type  1   force =    -0.00043096    0.00091653    0.00059650
     atom   73 type  1   force =     0.00126618    0.00070916    0.00070916
     atom   74 type  1   force =     0.00210325    0.00150680    0.00150680
     atom   75 type  1   force =    -0.01417222    0.00219144    0.01417221
     atom   76 type  1   force =     0.01687145   -0.03667402   -0.01687145
     atom   77 type  1   force =    -0.01530199   -0.00163093    0.00731454
     atom   78 type  1   force =     0.01516706   -0.00736263    0.00171010
     atom   79 type  1   force =    -0.00596292   -0.00397740    0.00211355
     atom   80 type  1   force =    -0.00163014    0.00125114    0.00135872
     atom   81 type  1   force =    -0.00200928    0.00088138   -0.00067582
     atom   82 type  1   force =    -0.00054259    0.00103008   -0.00172969
     atom   83 type  1   force =     0.00444758   -0.00275966   -0.00275967
     atom   84 type  1   force =    -0.00398658   -0.00132966   -0.00132966
     atom   85 type  1   force =    -0.00731453   -0.00163094    0.01530199
     atom   86 type  1   force =    -0.00171009   -0.00736262   -0.01516708
     atom   87 type  1   force =    -0.00148574   -0.00397595    0.00148572
     atom   88 type  1   force =    -0.00281524    0.00439780    0.00281525
     atom   89 type  1   force =     0.00108558   -0.00044232    0.00188841
     atom   90 type  1   force =     0.00107683   -0.00206646    0.00090269
     atom   91 type  1   force =     0.00058991    0.00050292    0.00030080
     atom   92 type  1   force =     0.00153559   -0.00118099    0.00037933
     atom   93 type  1   force =    -0.00007652    0.00051911    0.00051912
     atom   94 type  1   force =    -0.00102066   -0.00085448   -0.00085450
     atom   95 type  1   force =    -0.00211354   -0.00397741    0.00596290
     atom   96 type  1   force =    -0.00135869    0.00125113    0.00163010
     atom   97 type  1   force =    -0.00188842   -0.00044233   -0.00108557
     atom   98 type  1   force =    -0.00090269   -0.00206645   -0.00107684
     atom   99 type  1   force =     0.00036622   -0.00063100   -0.00036624
     atom  100 type  1   force =    -0.00022266    0.00099114    0.00022265
     atom  101 type  1   force =    -0.00042984    0.00164955    0.00042985
     atom  102 type  1   force =    -0.00041720   -0.00080999    0.00041718
     atom  103 type  1   force =    -0.00067294    0.00064679   -0.00136490
     atom  104 type  1   force =    -0.00059649    0.00043094    0.00091652
     atom  105 type  1   force =    -0.00320322   -0.00316542   -0.00316543
     atom  106 type  1   force =    -0.00486676   -0.00660670   -0.00660671
     atom  107 type  1   force =     0.00140342   -0.00183260   -0.00102376
     atom  108 type  1   force =     0.00221269   -0.00610375    0.00384068
     atom  109 type  1   force =     0.00178381    0.00320440    0.00074904
     atom  110 type  1   force =     0.00058495   -0.00310725    0.00173668
     atom  111 type  1   force =     0.00136490    0.00064680    0.00067293
     atom  112 type  1   force =    -0.00091651    0.00043095    0.00059649
     atom  113 type  1   force =    -0.00070917   -0.00126619    0.00070918
     atom  114 type  1   force =    -0.00150678   -0.00210326    0.00150680
     atom  115 type  1   force =    -0.00219146    0.01417221    0.01417221
     atom  116 type  1   force =     0.03667403   -0.01687144   -0.01687148
     atom  117 type  1   force =     0.00163095    0.01530199    0.00731453
     atom  118 type  1   force =     0.00736263   -0.01516706    0.00171011
     atom  119 type  1   force =     0.00397740    0.00596291    0.00211356
     atom  120 type  1   force =    -0.00125113    0.00163012    0.00135870
     atom  121 type  1   force =     0.00316543   -0.00316543    0.00320321
     atom  122 type  1   force =     0.00660671   -0.00660670    0.00486673
     atom  123 type  1   force =    -0.01417222    0.01417221    0.00219145
     atom  124 type  1   force =     0.01687145   -0.01687146   -0.03667401
     atom  125 type  2   force =     0.28342101   -0.28342102   -0.28342102
     atom  126 type  2   force =    -0.28356111    0.28356112    0.28356111
     atom  127 type  1   force =    -0.01683329    0.01683329    0.03662905
     atom  128 type  1   force =     0.01426391   -0.01426391   -0.00217404
     atom  129 type  1   force =    -0.00661143    0.00661143   -0.00475144
     atom  130 type  1   force =    -0.00322579    0.00322578   -0.00323437
     atom  131 type  1   force =     0.00102373   -0.00183259   -0.00140343
     atom  132 type  1   force =    -0.00384068   -0.00610375   -0.00221271
     atom  133 type  1   force =    -0.00731453    0.01530199   -0.00163093
     atom  134 type  1   force =    -0.00171009   -0.01516707   -0.00736262
     atom  135 type  1   force =    -0.03662905    0.01683330    0.01683331
     atom  136 type  1   force =     0.00217405   -0.01426390   -0.01426391
     atom  137 type  1   force =     0.00147562    0.00213469   -0.00147562
     atom  138 type  1   force =     0.00079083    0.00127635   -0.00079082
     atom  139 type  1   force =     0.00105245   -0.00041431   -0.00056203
     atom  140 type  1   force =    -0.00151287   -0.00059315   -0.00073011
     atom  141 type  1   force =    -0.00074904    0.00320440   -0.00178382
     atom  142 type  1   force =    -0.00173667   -0.00310725   -0.00058497
     atom  143 type  1   force =    -0.00211355    0.00596291   -0.00397741
     atom  144 type  1   force =    -0.00135868    0.00163011    0.00125113
     atom  145 type  1   force =     0.00475144    0.00661143    0.00661145
     atom  146 type  1   force =     0.00323438    0.00322579    0.00322579
     atom  147 type  1   force =     0.00056204   -0.00041430   -0.00105247
     atom  148 type  1   force =     0.00073012   -0.00059315    0.00151287
     atom  149 type  1   force =     0.00046775    0.00066532   -0.00046775
     atom  150 type  1   force =     0.00025877   -0.00164990   -0.00025877
     atom  151 type  1   force =     0.00040831   -0.00093679   -0.00040833
     atom  152 type  1   force =    -0.00031402    0.00049256    0.00031402
     atom  153 type  1   force =     0.00067582    0.00200928    0.00088137
     atom  154 type  1   force =     0.00172970    0.00054258    0.00103008
     atom  155 type  1   force =     0.00140342   -0.00102375   -0.00183262
     atom  156 type  1   force =     0.00221269    0.00384068   -0.00610376
     atom  157 type  1   force =     0.00094707    0.00067665    0.00067664
     atom  158 type  1   force =    -0.00003160   -0.00050850   -0.00050850
     atom  159 type  1   force =    -0.00147868    0.00112020   -0.00039208
     atom  160 type  1   force =    -0.00061667   -0.00048751   -0.00044217
     atom  161 type  1   force =    -0.00088138    0.00200928   -0.00067583
     atom  162 type  1   force =    -0.00103006    0.00054257   -0.00172970
     atom  163 type  1   force =     0.00275967   -0.00444759   -0.00275965
     atom  164 type  1   force =     0.00132967    0.00398658   -0.00132966
     atom  165 type  1   force =     0.00163094    0.00731454    0.01530199
     atom  166 type  1   force =     0.00736261    0.00171009   -0.01516707
     atom  167 type  1   force =     0.00397596    0.00148573    0.00148572
     atom  168 type  1   force =    -0.00439777    0.00281524    0.00281524
     atom  169 type  1   force =     0.00044234   -0.00108558    0.00188842
     atom  170 type  1   force =     0.00206645   -0.00107682    0.00090271
     atom  171 type  1   force =     0.00183261   -0.00102375   -0.00140344
     atom  172 type  1   force =     0.00610376    0.00384069   -0.00221271
     atom  173 type  1   force =    -0.01530200    0.00731454   -0.00163093
     atom  174 type  1   force =     0.01516708    0.00171011   -0.00736262
     atom  175 type  1   force =    -0.01683330    0.03662905    0.01683332
     atom  176 type  1   force =     0.01426390   -0.00217404   -0.01426390
     atom  177 type  1   force =    -0.00213471   -0.00147561   -0.00147560
     atom  178 type  1   force =    -0.00127635   -0.00079086   -0.00079085
     atom  179 type  1   force =     0.00041430   -0.00105247   -0.00056202
     atom  180 type  1   force =     0.00059315    0.00151288   -0.00073012
     atom  181 type  1   force =    -0.00067663    0.00067663   -0.00094708
     atom  182 type  1   force =     0.00050850   -0.00050849    0.00003161
     atom  183 type  1   force =    -0.00148573    0.00148571   -0.00397595
     atom  184 type  1   force =    -0.00281524    0.00281523    0.00439778
     atom  185 type  1   force =     0.00147564   -0.00147563    0.00213471
     atom  186 type  1   force =     0.00079083   -0.00079084    0.00127635
     atom  187 type  1   force =    -0.00014011    0.00014011    0.00014011
     atom  188 type  1   force =    -0.00071646    0.00071644    0.00071646
     atom  189 type  1   force =     0.00008193   -0.00008194   -0.00095841
     atom  190 type  1   force =     0.00109811   -0.00109810    0.00096910
     atom  191 type  1   force =     0.00039207    0.00112020    0.00147868
     atom  192 type  1   force =     0.00044216   -0.00048749    0.00061667
     atom  193 type  1   force =    -0.00188841   -0.00108559   -0.00044234
     atom  194 type  1   force =    -0.00090270   -0.00107681   -0.00206643
     atom  195 type  1   force =     0.00056203   -0.00105248   -0.00041431
     atom  196 type  1   force =     0.00073012    0.00151285   -0.00059316
     atom  197 type  1   force =     0.00095843   -0.00008196   -0.00008195
     atom  198 type  1   force =    -0.00096909   -0.00109809   -0.00109809
     atom  199 type  1   force =    -0.00077105   -0.00075064    0.00077105
     atom  200 type  1   force =     0.00012380    0.00029290   -0.00012379
     atom  201 type  1   force =    -0.00002768   -0.00134641    0.00002770
     atom  202 type  1   force =     0.00042029    0.00099066   -0.00042029
     atom  203 type  1   force =    -0.00030080   -0.00058992    0.00050291
     atom  204 type  1   force =    -0.00037935   -0.00153561   -0.00118100
     atom  205 type  1   force =     0.00178382    0.00074904    0.00320439
     atom  206 type  1   force =     0.00058495    0.00173668   -0.00310727
     atom  207 type  1   force =    -0.00147868   -0.00039207    0.00112021
     atom  208 type  1   force =    -0.00061668   -0.00044218   -0.00048751
     atom  209 type  1   force =     0.00109587    0.00054878    0.00054878
     atom  210 type  1   force =    -0.00140727   -0.00004895   -0.00004895
     atom  211 type  1   force =    -0.00050289   -0.00058989    0.00030081
     atom  212 type  1   force =     0.00118099   -0.00153560    0.00037933
     atom  213 type  1   force =    -0.00051911    0.00007653    0.00051911
     atom  214 type  1   force =     0.00085451    0.00102066   -0.00085452
     atom  215 type  1   force =     0.00397739    0.00211357    0.00596292
     atom  216 type  1   force =    -0.00125113    0.00135871    0.00163012
     atom  217 type  1   force =     0.00044234    0.00188841   -0.00108558
     atom  218 type  1   force =     0.00206643    0.00090271   -0.00107682
     atom  219 type  1   force =     0.00063098   -0.00036623   -0.00036624
     atom  220 type  1   force =    -0.00099114    0.00022266    0.00022265
     atom  221 type  1   force =    -0.00320440    0.00074904   -0.00178382
     atom  222 type  1   force =     0.00310726    0.00173666   -0.00058497
     atom  223 type  1   force =    -0.00596292    0.00211356   -0.00397739
     atom  224 type  1   force =    -0.00163012    0.00135869    0.00125113
     atom  225 type  1   force =    -0.00661142   -0.00475145    0.00661142
     atom  226 type  1   force =    -0.00322580   -0.00323437    0.00322578
     atom  227 type  1   force =     0.00041430   -0.00056201   -0.00105247
     atom  228 type  1   force =     0.00059315   -0.00073013    0.00151288
     atom  229 type  1   force =    -0.00066531   -0.00046777   -0.00046776
     atom  230 type  1   force =     0.00164990   -0.00025879   -0.00025879
     atom  231 type  1   force =    -0.00112021   -0.00039209    0.00147868
     atom  232 type  1   force =     0.00048749   -0.00044217    0.00061668
     atom  233 type  1   force =     0.00108560    0.00188840   -0.00044234
     atom  234 type  1   force =     0.00107682    0.00090270   -0.00206643
     atom  235 type  1   force =     0.00105248   -0.00056199   -0.00041431
     atom  236 type  1   force =    -0.00151287   -0.00073012   -0.00059314
     atom  237 type  1   force =     0.00008194   -0.00095842   -0.00008194
     atom  238 type  1   force =     0.00109812    0.00096907   -0.00109811
     atom  239 type  1   force =     0.00075065    0.00077105    0.00077105
     atom  240 type  1   force =    -0.00029290   -0.00012379   -0.00012379
     atom  241 type  1   force =    -0.00054879    0.00054879   -0.00109586
     atom  242 type  1   force =     0.00004894   -0.00004894    0.00140726
     atom  243 type  1   force =     0.00036623   -0.00036624   -0.00063098
     atom  244 type  1   force =    -0.00022267    0.00022265    0.00099115
     atom  245 type  1   force =     0.00046777   -0.00046777    0.00066530
     atom  246 type  1   force =     0.00025880   -0.00025879   -0.00164990
     atom  247 type  1   force =    -0.00077104    0.00077104   -0.00075065
     atom  248 type  1   force =     0.00012380   -0.00012379    0.00029291
     atom  249 type  1   force =     0.00040770   -0.00040769   -0.00040770
     atom  250 type  1   force =     0.00000888   -0.00000889   -0.00000888

     Total force =     0.708585     Total SCF correction =     0.000030


     Computing stress (Cartesian axis) and pressure

          total   stress  (Ry/bohr**3)                   (kbar)     P=  -57.67
  -0.00039202  -0.00008914  -0.00008914        -57.67    -13.11    -13.11
  -0.00008914  -0.00039202   0.00008914        -13.11    -57.67     13.11
  -0.00008914   0.00008914  -0.00039202        -13.11     13.11    -57.67


     BFGS Geometry Optimization

     number of scf cycles    =   1
     number of bfgs steps    =   0

     enthalpy new            =   -2862.3946787172 Ry

     new trust radius        =       0.4911422548 bohr
     new conv_thr            =            1.0E-10 Ry

     new unit-cell volume =   9139.06565 a.u.^3 (  1354.26979 Ang^3 )
     density =      3.68672 g/cm^3

CELL_PARAMETERS (alat= 33.51712756)
  -0.496213901   0.002228385   0.496213901
  -0.002228384   0.496213902   0.496213902
  -0.496213901   0.496213901   0.002228385

ATOMIC_POSITIONS (crystal)
C        0.000000385   0.000000385   0.000000384
C        0.050007317   0.050007317   0.050007317
C       -0.000007500  -0.000007500   0.200016661
C        0.050019323   0.050019322   0.249942695
C        0.000049215   0.000049216   0.399976433
C        0.049975833   0.049975834   0.450049061
C       -0.000027951  -0.000027950   0.600003586
C        0.050014696   0.050014696   0.650004043
C       -0.000040171  -0.000040171   0.800041824
C        0.050029557   0.050029557   0.849945364
C       -0.000007501   0.200016661  -0.000007501
C        0.050019323   0.249942695   0.050019323
C        0.000091895   0.199970503   0.199970502
C        0.049972622   0.250030561   0.250030561
C       -0.000041502   0.200080098   0.399960058
C        0.050022406   0.250003309   0.450032284
C        0.000106408   0.200013488   0.599946185
C        0.050098528   0.249933849   0.649962938
C       -0.000011571   0.199976371   0.800041580
C        0.049907631   0.250000738   0.850021898
C        0.000049215   0.399976435   0.000049215
C        0.049975833   0.450049060   0.049975835
C       -0.000041502   0.399960058   0.200080097
C        0.050022406   0.450032285   0.250003309
C       -0.000284454   0.400095569   0.400095568
C        0.049460570   0.450145202   0.450145201
C       -0.000043348   0.399982260   0.599933995
C        0.049998497   0.450230681   0.649637285
C        0.000171173   0.399873522   0.800020036
C        0.049976561   0.450127068   0.849838026
C       -0.000027950   0.600003585  -0.000027950
C        0.050014695   0.650004043   0.050014696
C        0.000106408   0.599946185   0.200013487
C        0.050098528   0.649962938   0.249933849
C       -0.000043349   0.599933995   0.399982261
C        0.049998496   0.649637285   0.450230680
C        0.000068633   0.599971743   0.599971744
C        0.049968715   0.650000943   0.650000943
C       -0.000022394   0.599998997   0.800089237
C        0.049953864   0.650019751   0.850017047
C       -0.000040171   0.800041823  -0.000040171
C        0.050029557   0.849945364   0.050029557
C       -0.000011571   0.800041579   0.199976370
C        0.049907631   0.850021898   0.250000738
C        0.000171173   0.800020036   0.399873523
C        0.049976561   0.849838026   0.450127068
C       -0.000022393   0.800089236   0.599998997
C        0.049953864   0.850017047   0.650019751
C        0.000065441   0.799967305   0.799967305
C        0.049955093   0.850041986   0.850041986
C        0.200016661  -0.000007500  -0.000007501
C        0.249942695   0.050019323   0.050019323
C        0.199970502   0.000091895   0.199970502
C        0.250030561   0.049972622   0.250030560
C        0.200080098  -0.000041502   0.399960057
C        0.250003309   0.050022406   0.450032284
C        0.200013489   0.000106408   0.599946184
C        0.249933848   0.050098528   0.649962938
C        0.199976370  -0.000011571   0.800041580
C        0.250000738   0.049907632   0.850021898
C        0.199970503   0.199970503   0.000091895
C        0.250030560   0.250030560   0.049972623
C        0.199980666   0.199980666   0.199980666
C        0.249996146   0.249996147   0.249996147
C        0.199962223   0.199962223   0.400080093
C        0.249937249   0.249937248   0.450152663
C        0.199867304   0.199867303   0.599968024
C        0.250118942   0.250118941   0.649801717
C        0.200002283   0.200002284   0.800028692
C        0.250030452   0.250030452   0.849918559
C        0.200080097   0.399960057  -0.000041502
C        0.250003310   0.450032284   0.050022406
C        0.199962223   0.400080093   0.199962223
C        0.249937249   0.450152664   0.249937249
C        0.200780287   0.400065382   0.400065383
C        0.250087452   0.448905812   0.448905812
C        0.200723435   0.399713031   0.600189650
C        0.249818173   0.450283871   0.649276794
C        0.200359633   0.399766484   0.799996180
C        0.250051846   0.450029230   0.850045426
C        0.200013488   0.599946185   0.000106408
C        0.249933849   0.649962938   0.050098527
C        0.199867304   0.599968024   0.199867305
C        0.250118942   0.649801716   0.250118942
C        0.200723435   0.600189650   0.399713030
C        0.249818171   0.649276794   0.450283871
C        0.200207279   0.599881375   0.599881376
C        0.250036778   0.650131211   0.650131210
C        0.200037150   0.600075533   0.799898073
C        0.250056458   0.649997406   0.849879287
C        0.199976369   0.800041580  -0.000011570
C        0.250000738   0.850021897   0.049907632
C        0.200002284   0.800028693   0.200002283
C        0.250030451   0.849918560   0.250030453
C        0.200359633   0.799996179   0.399766484
C        0.250051844   0.850045426   0.450029230
C        0.200037151   0.799898072   0.600075533
C        0.250056458   0.849879286   0.649997407
C        0.199996973   0.799981173   0.799981174
C        0.249983715   0.850029571   0.850029572
C        0.399976434   0.000049215   0.000049215
C        0.450049061   0.049975833   0.049975834
C        0.399960058  -0.000041503   0.200080097
C        0.450032284   0.050022406   0.250003309
C        0.400095570  -0.000284454   0.400095570
C        0.450145202   0.049460569   0.450145202
C        0.399982260  -0.000043349   0.599933996
C        0.450230680   0.049998497   0.649637286
C        0.399873522   0.000171174   0.800020036
C        0.450127069   0.049976561   0.849838027
C        0.399960057   0.200080097  -0.000041502
C        0.450032284   0.250003309   0.050022406
C        0.400080095   0.199962223   0.199962223
C        0.450152663   0.249937249   0.249937248
C        0.400065383   0.200780286   0.400065383
C        0.448905811   0.250087451   0.448905814
C        0.399713030   0.200723435   0.600189649
C        0.450283871   0.249818173   0.649276794
C        0.399766485   0.200359633   0.799996180
C        0.450029230   0.250051845   0.850045426
C        0.400095569   0.400095569  -0.000284454
C        0.450145201   0.450145202   0.049460570
C        0.400065383   0.400065383   0.200780287
C        0.448905813   0.448905813   0.250087451
N        0.391543994   0.391543994   0.391543995
N        0.458460185   0.458460186   0.458460186
C        0.401092846   0.401092846   0.599911614
C        0.449935136   0.449935136   0.649213722
C        0.399858238   0.399858238   0.800536272
C        0.449903501   0.449903501   0.850288985
C        0.399982261   0.599933995  -0.000043348
C        0.450230680   0.649637286   0.049998498
C        0.399713031   0.600189650   0.200723435
C        0.450283871   0.649276794   0.249818172
C        0.401092846   0.599911614   0.401092845
C        0.449935136   0.649213723   0.449935136
C        0.399848259   0.600063690   0.600063689
C        0.449914730   0.650038081   0.650038080
C        0.399964192   0.600002271   0.799973007
C        0.450041051   0.649915383   0.850049224
C        0.399873522   0.800020036   0.000171174
C        0.450127068   0.849838026   0.049976561
C        0.399766485   0.799996180   0.200359633
C        0.450029230   0.850045426   0.250051844
C        0.399858239   0.800536273   0.399858238
C        0.449903501   0.850288985   0.449903501
C        0.399964191   0.799973007   0.600002271
C        0.450041051   0.850049223   0.649915382
C        0.399952239   0.800019850   0.800019850
C        0.450033784   0.849950775   0.849950774
C        0.600003585  -0.000027950  -0.000027949
C        0.650004042   0.050014696   0.050014696
C        0.599946185   0.000106407   0.200013488
C        0.649962939   0.050098527   0.249933849
C        0.599933995  -0.000043349   0.399982261
C        0.649637286   0.049998497   0.450230681
C        0.599971743   0.000068632   0.599971744
C        0.650000943   0.049968715   0.650000943
C        0.599998998  -0.000022393   0.800089237
C        0.650019752   0.049953864   0.850017046
C        0.599946185   0.200013488   0.000106408
C        0.649962938   0.249933849   0.050098527
C        0.599968025   0.199867304   0.199867303
C        0.649801716   0.250118942   0.250118942
C        0.600189650   0.200723435   0.399713031
C        0.649276794   0.249818171   0.450283872
C        0.599881375   0.200207279   0.599881376
C        0.650131210   0.250036778   0.650131210
C        0.600075533   0.200037151   0.799898072
C        0.649997407   0.250056459   0.849879286
C        0.599933995   0.399982260  -0.000043349
C        0.649637285   0.450230680   0.049998498
C        0.600189650   0.399713031   0.200723435
C        0.649276793   0.450283872   0.249818172
C        0.599911615   0.401092846   0.401092845
C        0.649213722   0.449935136   0.449935136
C        0.600063691   0.399848259   0.600063690
C        0.650038081   0.449914728   0.650038080
C        0.600002272   0.399964192   0.799973006
C        0.649915382   0.450041051   0.850049224
C        0.599971744   0.599971743   0.000068632
C        0.650000943   0.650000943   0.049968714
C        0.599881376   0.599881375   0.200207279
C        0.650131210   0.650131210   0.250036778
C        0.600063690   0.600063690   0.399848257
C        0.650038081   0.650038081   0.449914730
C        0.600004180   0.600004180   0.600004180
C        0.650021376   0.650021375   0.650021375
C        0.599971406   0.599971405   0.800023705
C        0.650028913   0.650028914   0.849905561
C        0.599998997   0.800089237  -0.000022393
C        0.650019751   0.850017046   0.049953865
C        0.600075533   0.799898072   0.200037150
C        0.649997407   0.849879287   0.250056458
C        0.600002272   0.799973006   0.399964192
C        0.649915383   0.850049223   0.450041050
C        0.599971405   0.800023705   0.599971404
C        0.650028913   0.849905562   0.650028913
C        0.600068405   0.799977604   0.799977604
C        0.649983874   0.850008739   0.850008738
C        0.800041823  -0.000040170  -0.000040172
C        0.849945364   0.050029557   0.050029557
C        0.800041580  -0.000011571   0.199976369
C        0.850021898   0.049907631   0.250000738
C        0.800020036   0.000171174   0.399873522
C        0.849838026   0.049976560   0.450127069
C        0.800089237  -0.000022393   0.599998997
C        0.850017046   0.049953864   0.650019751
C        0.799967304   0.000065442   0.799967304
C        0.850041987   0.049955093   0.850041986
C        0.800041579   0.199976371  -0.000011570
C        0.850021898   0.250000738   0.049907631
C        0.800028692   0.200002284   0.200002283
C        0.849918558   0.250030451   0.250030452
C        0.799996180   0.200359634   0.399766486
C        0.850045426   0.250051845   0.450029230
C        0.799898072   0.200037150   0.600075533
C        0.849879287   0.250056458   0.649997407
C        0.799981174   0.199996972   0.799981175
C        0.850029571   0.249983715   0.850029571
C        0.800020036   0.399873522   0.000171174
C        0.849838026   0.450127068   0.049976561
C        0.799996180   0.399766485   0.200359633
C        0.850045426   0.450029230   0.250051845
C        0.800536272   0.399858238   0.399858238
C        0.850288985   0.449903500   0.449903502
C        0.799973006   0.399964192   0.600002272
C        0.850049224   0.450041051   0.649915382
C        0.800019850   0.399952238   0.800019850
C        0.849950774   0.450033783   0.849950774
C        0.800089238   0.599998997  -0.000022394
C        0.850017046   0.650019751   0.049953864
C        0.799898072   0.600075533   0.200037149
C        0.849879287   0.649997407   0.250056458
C        0.799973005   0.600002273   0.399964192
C        0.850049224   0.649915383   0.450041051
C        0.800023705   0.599971405   0.599971405
C        0.849905562   0.650028913   0.650028913
C        0.799977604   0.600068405   0.799977604
C        0.850008739   0.649983875   0.850008739
C        0.799967304   0.799967304   0.000065442
C        0.850041987   0.850041986   0.049955093
C        0.799981174   0.799981174   0.199996972
C        0.850029572   0.850029571   0.249983715
C        0.800019850   0.800019850   0.399952238
C        0.849950774   0.849950775   0.450033783
C        0.799977604   0.799977604   0.600068405
C        0.850008739   0.850008739   0.649983874
C        0.799987836   0.799987837   0.799987836
C        0.849999735   0.849999735   0.849999735



     Writing output data file n2.save
     NEW-OLD atomic charge density approx. for the potential
     extrapolated charge  971.98875, renormalised to 1002.00000

     total cpu time spent up to now is      335.6 secs

     per-process dynamical memory:   109.4 Mb

     Self-consistent Calculation

     iteration #  1     ecut=    50.00 Ry     beta=0.70
     Davidson diagonalization with overlap
     ethr =  1.00E-06,  avg # of iterations = 17.0

     total cpu time spent up to now is      375.7 secs

     total energy              =   -2862.52838757 Ry
     Harris-Foulkes estimate   =   -2842.04542603 Ry
     estimated scf accuracy    <       0.54041340 Ry

     iteration #  2     ecut=    50.00 Ry     beta=0.70
     Davidson diagonalization with overlap
     ethr =  5.39E-05,  avg # of iterations =  8.0

     total cpu time spent up to now is      395.0 secs

     total energy              =   -2862.69748152 Ry
     Harris-Foulkes estimate   =   -2862.70719902 Ry
     estimated scf accuracy    <       0.05792149 Ry

     iteration #  3     ecut=    50.00 Ry     beta=0.70
     Davidson diagonalization with overlap
     ethr =  5.78E-06,  avg # of iterations =  7.0

     total cpu time spent up to now is      404.4 secs

     total energy              =   -2862.69233945 Ry
     Harris-Foulkes estimate   =   -2862.69914196 Ry
     estimated scf accuracy    <       0.02419456 Ry

     iteration #  4     ecut=    50.00 Ry     beta=0.70
     Davidson diagonalization with overlap
     ethr =  2.41E-06,  avg # of iterations =  9.0

     total cpu time spent up to now is      418.7 secs

     total energy              =   -2862.69360833 Ry
     Harris-Foulkes estimate   =   -2862.69456885 Ry
     estimated scf accuracy    <       0.00443477 Ry

     iteration #  5     ecut=    50.00 Ry     beta=0.70
     Davidson diagonalization with overlap
     ethr =  4.43E-07,  avg # of iterations =  7.0

     total cpu time spent up to now is      429.8 secs

     total energy              =   -2862.69356536 Ry
     Harris-Foulkes estimate   =   -2862.69390410 Ry
     estimated scf accuracy    <       0.00114161 Ry

     iteration #  6     ecut=    50.00 Ry     beta=0.70
     Davidson diagonalization with overlap
     ethr =  1.14E-07,  avg # of iterations =  7.0

     total cpu time spent up to now is      443.3 secs

     total energy              =   -2862.69368086 Ry
     Harris-Foulkes estimate   =   -2862.69372056 Ry
     estimated scf accuracy    <       0.00016403 Ry

     iteration #  7     ecut=    50.00 Ry     beta=0.70
     Davidson diagonalization with overlap
     ethr =  1.64E-08,  avg # of iterations =  8.0

     total cpu time spent up to now is      455.2 secs

     total energy              =   -2862.69367516 Ry
     Harris-Foulkes estimate   =   -2862.69369178 Ry
     estimated scf accuracy    <       0.00004532 Ry

     iteration #  8     ecut=    50.00 Ry     beta=0.70
     Davidson diagonalization with overlap
     ethr =  4.52E-09,  avg # of iterations =  7.0

     total cpu time spent up to now is      470.2 secs

     total energy              =   -2862.69368262 Ry
     Harris-Foulkes estimate   =   -2862.69368471 Ry
     estimated scf accuracy    <       0.00000770 Ry

     iteration #  9     ecut=    50.00 Ry     beta=0.70
     Davidson diagonalization with overlap
     ethr =  7.69E-10,  avg # of iterations =  8.0

     total cpu time spent up to now is      485.4 secs

     total energy              =   -2862.69368295 Ry
     Harris-Foulkes estimate   =   -2862.69368356 Ry
     estimated scf accuracy    <       0.00000195 Ry

     iteration # 10     ecut=    50.00 Ry     beta=0.70
     Davidson diagonalization with overlap
     ethr =  1.95E-10,  avg # of iterations = 10.0

     total cpu time spent up to now is      503.9 secs

     total energy              =   -2862.69368315 Ry
     Harris-Foulkes estimate   =   -2862.69368321 Ry
     estimated scf accuracy    <       0.00000023 Ry

     iteration # 11     ecut=    50.00 Ry     beta=0.70
     Davidson diagonalization with overlap
     ethr =  2.25E-11,  avg # of iterations =  8.0

     total cpu time spent up to now is      517.6 secs

     total energy              =   -2862.69368316 Ry
     Harris-Foulkes estimate   =   -2862.69368317 Ry
     estimated scf accuracy    <       0.00000004 Ry

     iteration # 12     ecut=    50.00 Ry     beta=0.70
     Davidson diagonalization with overlap
     ethr =  4.08E-12,  avg # of iterations =  8.0

     total cpu time spent up to now is      533.9 secs

     total energy              =   -2862.69368317 Ry
     Harris-Foulkes estimate   =   -2862.69368317 Ry
     estimated scf accuracy    <          4.4E-09 Ry

     iteration # 13     ecut=    50.00 Ry     beta=0.70
     Davidson diagonalization with overlap
     ethr =  4.42E-13,  avg # of iterations =  7.0

     total cpu time spent up to now is      549.3 secs

     total energy              =   -2862.69368317 Ry
     Harris-Foulkes estimate   =   -2862.69368317 Ry
     estimated scf accuracy    <          4.1E-10 Ry

     iteration # 14     ecut=    50.00 Ry     beta=0.70
     Davidson diagonalization with overlap
     ethr =  1.00E-13,  avg # of iterations =  8.0

     total cpu time spent up to now is      561.4 secs

     End of self-consistent calculation

          k = 0.0000 0.0000 0.0000 ( 56233 PWs)   bands (ev):

    -8.0183  -7.2965  -7.0042  -6.7819  -6.7819  -6.7732  -6.7708  -6.7656
    -6.7656  -6.5254  -6.5039  -6.4038  -6.4038  -6.3933  -6.3933  -5.5189
    -5.2770  -4.9385  -4.9385  -4.9316  -4.9316  -4.9057  -4.9057  -4.9004
    -4.9003  -4.9003  -4.8976  -4.4685  -4.2199  -3.8798  -3.8798  -3.8415
    -3.8415  -3.8400  -3.8400  -3.8311  -3.8311  -3.8259  -3.8206  -3.8168
    -3.8148  -3.8148  -3.8112  -3.8112  -3.8079  -3.8059  -3.8007  -3.8007
    -3.7913  -3.7877  -3.7877  -3.5870  -3.5367  -3.5260  -3.4889  -3.4889
    -3.4889  -3.4804  -3.4804  -2.4291  -2.0785  -2.0387  -2.0387  -1.9941
    -1.9941  -1.7850  -1.6788  -1.3766  -1.3766  -1.3683  -1.3683  -1.3533
    -1.3387  -1.3387  -1.3174  -1.3174  -1.2940  -1.2755  -1.2692  -1.2692
    -1.2674  -1.2625  -1.2625  -1.2420  -1.2420  -1.2374  -1.2296  -1.2296
    -1.2183  -1.0161  -0.8240  -0.8240  -0.8192  -0.7983  -0.7983  -0.7689
    -0.7621  -0.7621  -0.7609  -0.7570  -0.7570  -0.7338  -0.7303  -0.7303
    -0.7131  -0.7118  -0.7118  -0.7085  -0.7018  -0.6990  -0.6990  -0.6866
    -0.6866   0.6436   1.1001   1.1208   1.1208   1.1409   1.1409   1.1637
     1.1637   1.1894   1.2127   1.2127   1.2246   1.3300   1.4538   1.4538
     1.5086   1.5224   1.5224   1.5533   1.5536   1.5650   1.5650   1.5658
     1.5658   1.5666   1.5666   1.5762   1.5762   1.5795   1.5806   1.5806
     1.5826   1.5837   1.5916   1.5916   1.6439   1.6781   1.7386   1.7386
     1.7436   1.7522   1.7522   1.7649   1.7649   1.7870   1.7870   1.8037
     1.8111   2.3138   2.3442   2.3601   2.3766   2.3766   2.3899   2.3899
     2.4161   3.3654   3.6389   3.6389   3.6465   3.6465   3.7013   3.7510
     3.7625   3.7640   3.7640   3.7691   3.7691   3.7786   3.7786   3.8019
     3.8019   3.8061   3.8099   3.8229   3.8279   3.8320   3.8320   3.8371
     3.8371   4.4373   4.4373   4.4518   4.5430   4.5437   4.5437   4.8589
     4.8589   4.8699   4.8699   4.8729   4.9287   4.9799   4.9943   4.9943
     5.0133   5.0133   5.0176   5.0289   5.0397   5.0514   5.0514   5.0605
     5.0605   5.0682   5.0709   5.0709   5.0921   5.0924   5.0924   5.1132
     5.1132   5.1318   5.1318   5.1455   5.1510   5.1534   5.1602   5.1602
     5.1614   5.1614   5.1891   5.4061   5.4061   5.4399   5.4457   5.4457
     5.4767   5.4767   5.4775   5.4832   5.4942   5.4942   5.5068   5.5075
     5.5075   5.5113   5.5113   5.5120   5.5142   5.5142   5.5262   5.5359
     5.5380   5.5380   5.6198   6.7881   6.7881   6.8603   6.9254   6.9254
     6.9572   7.0033   7.0222   7.0222   7.0232   7.0232   7.0374   7.2181
     7.2181   7.2983   7.2983   7.4322   7.4480   7.4663   7.4844   7.4844
     7.4847   7.4885   7.5007   7.5007   7.5009   7.5009   7.5048   7.5081
     7.5081   7.5151   7.5151   7.5184   7.5223   7.5265   7.5340   7.5340
     7.5474   7.5474   7.5535   7.5545   7.5545   7.5547   7.5547   7.5604
     7.5762   7.5762   7.5861   7.5861   7.5911   7.6012   7.6036   7.6036
     7.6051   7.6259   7.6287   7.6287   7.6335   7.6335   7.6929   7.8663
     7.8663   7.8664   7.8664   7.8712   7.8790   7.9067   7.9067   7.9301
     7.9301   7.9302   7.9307   7.9307   7.9374   7.9414   7.9414   7.9564
     7.9689   7.9689   8.0225   8.0237   8.0292   8.0292   8.0511   8.1733
     8.1733   8.1846   8.1906   8.1906   8.2286   8.2286   8.2696   8.2738
     8.2738   8.2786   8.2790   8.9055   8.9055   8.9947   9.0716   9.1024
     9.1437   9.1505   9.1505   9.2070   9.2070   9.2292   9.2622   9.2622
     9.2952   9.3030   9.3100   9.3100   9.3140   9.3140   9.3269   9.3269
     9.3330   9.3348   9.3348   9.3454   9.3506   9.3515   9.3515   9.3527
     9.3607   9.3607   9.4283   9.4857   9.5101   9.5101   9.5122   9.5122
     9.5250   9.5353   9.5353   9.5390   9.5390   9.5491   9.5535   9.5535
     9.5700   9.5700   9.5966   9.6084   9.6317   9.6317   9.6331   9.6373
     9.6389   9.6389   9.7609  10.0437  10.0437  10.0908  10.0908  10.1063
    10.1215  10.1215  10.1488  10.1488  10.1608  10.1664  10.1726  10.1726
    10.1740  10.1740  10.1745  10.1976  10.2117  10.2117  10.2122  10.2259
    10.2259  10.2308  10.2966  10.7061  10.7225  10.7225  10.7570  10.7570
    10.8004  10.8004  10.8234  10.8234  10.8383  10.8427  10.8700  11.0123
    11.0292  11.0292  11.0733  11.0733  11.1766  11.3470  11.3470  11.3934
    11.3934  11.4145  11.4145  11.4223  11.4297  11.4300  11.4300  11.4399
    11.4399  11.4486  11.5326  11.5326  11.6609  12.0205  12.0205  12.0753
    12.0753  12.0930  12.1182  12.1182  12.1215  12.1348  12.1400  12.1400
    12.2614  12.7003  12.7003  12.7480  12.7576  12.7576  12.7858  12.7924
    12.7924  12.7938  12.7938  12.8131  12.8351  12.8351  12.8393  12.8393
    13.1205  14.1750  14.1750  14.2448  15.8048  18.3571  18.4612  18.4612
    18.5218  18.5218  18.5946  18.9704  19.0397  19.0397  19.0566  19.0566
    19.1559  19.5790  19.5809  19.5809  19.6026  19.6170  19.6310  19.6310
    19.7602  19.7602  19.7781  19.7785  19.7785  19.8763  19.9722  19.9722
    20.2510  20.3488  20.3601  20.3601  20.3952  20.4111  20.4111  20.4184
    20.4184  20.4305  20.4481  20.4581  20.4581  20.4947  20.4947  20.4996
    20.4996  20.5057  20.5177  20.5252  20.5292  20.5337  20.5337  20.5368
    20.5368  20.5681  20.5681  20.6529  20.6529  20.8555  21.3573  21.5399
    21.5399  21.5401  21.5401  21.5453  21.5571  21.5917  21.5917  21.5943
    21.5975  21.5975  21.6123  21.6197  21.6197  21.6383  21.6383  21.6531
    21.6673  21.6747  21.6747  21.6859  21.6859  21.7029  21.7053  21.7053
    21.7071  21.7265  21.7265  21.7558  21.7558  21.7747  21.7747  21.7788
[...]
     atom   23 type  1   force =     0.00027739   -0.00044435   -0.00003985
     atom   24 type  1   force =    -0.00028682   -0.00014159    0.00002319
     atom   25 type  1   force =     0.00004281   -0.00014477   -0.00004281
     atom   26 type  1   force =     0.00002101    0.00027182   -0.00002102
     atom   27 type  1   force =     0.00024332    0.00003692   -0.00024684
     atom   28 type  1   force =    -0.00046327    0.00015833    0.00026716
     atom   29 type  1   force =     0.00022224   -0.00008557   -0.00011307
     atom   30 type  1   force =    -0.00021246    0.00010391    0.00007672
     atom   31 type  1   force =     0.00027464   -0.00016856   -0.00016855
     atom   32 type  1   force =    -0.00005886   -0.00008750   -0.00008751
     atom   33 type  1   force =    -0.00006725   -0.00034294   -0.00031873
     atom   34 type  1   force =    -0.00021470   -0.00015369    0.00014932
     atom   35 type  1   force =     0.00024685    0.00003693   -0.00024333
     atom   36 type  1   force =    -0.00026716    0.00015833    0.00046327
     atom   37 type  1   force =    -0.00004643    0.00015965    0.00004644
     atom   38 type  1   force =    -0.00008972    0.00043118    0.00008971
     atom   39 type  1   force =     0.00010519    0.00010963   -0.00004810
     atom   40 type  1   force =    -0.00021978    0.00002634    0.00028959
     atom   41 type  1   force =     0.00008504   -0.00016349   -0.00016349
     atom   42 type  1   force =    -0.00015541    0.00004407    0.00004407
     atom   43 type  1   force =     0.00003410   -0.00030314   -0.00022722
     atom   44 type  1   force =     0.00011947    0.00003852    0.00010062
     atom   45 type  1   force =     0.00011307   -0.00008557   -0.00022223
     atom   46 type  1   force =    -0.00007672    0.00010391    0.00021245
     atom   47 type  1   force =     0.00004811    0.00010963   -0.00010519
     atom   48 type  1   force =    -0.00028960    0.00002635    0.00021978
     atom   49 type  1   force =     0.00006400   -0.00016653   -0.00006399
     atom   50 type  1   force =    -0.00014801    0.00006591    0.00014800
     atom   51 type  1   force =     0.00035235   -0.00041966   -0.00035235
     atom   52 type  1   force =     0.00022468   -0.00026983   -0.00022467
     atom   53 type  1   force =     0.00054526   -0.00065765   -0.00065765
     atom   54 type  1   force =     0.00033737   -0.00050444   -0.00050443
     atom   55 type  1   force =     0.00044435   -0.00003985   -0.00027740
     atom   56 type  1   force =     0.00014160    0.00002320    0.00028682
     atom   57 type  1   force =     0.00034294   -0.00031874    0.00006725
     atom   58 type  1   force =     0.00015369    0.00014932    0.00021471
     atom   59 type  1   force =     0.00030314   -0.00022722   -0.00003410
     atom   60 type  1   force =    -0.00003853    0.00010063   -0.00011947
     atom   61 type  1   force =     0.00065765   -0.00065765   -0.00054526
     atom   62 type  1   force =     0.00050444   -0.00050444   -0.00033737
     atom   63 type  1   force =     0.00073767   -0.00073766   -0.00073766
     atom   64 type  1   force =    -0.00008749    0.00008748    0.00008748
     atom   65 type  1   force =     0.00020024   -0.00020024    0.00022354
     atom   66 type  1   force =    -0.00036859    0.00036859    0.00060179
     atom   67 type  1   force =     0.00002744   -0.00002745    0.00014320
     atom   68 type  1   force =    -0.00036623    0.00036623    0.00004507
     atom   69 type  1   force =     0.00008461   -0.00008461   -0.00044926
     atom   70 type  1   force =     0.00003815   -0.00003816   -0.00018466
     atom   71 type  1   force =     0.00027739   -0.00003986   -0.00044434
     atom   72 type  1   force =    -0.00028682    0.00002320   -0.00014160
     atom   73 type  1   force =    -0.00022354   -0.00020024   -0.00020023
     atom   74 type  1   force =    -0.00060179    0.00036860    0.00036859
     atom   75 type  1   force =     0.00051068   -0.00001434   -0.00051068
     atom   76 type  1   force =     0.00014102    0.00030404   -0.00014102
     atom   77 type  1   force =     0.00017664   -0.00018035    0.00003878
     atom   78 type  1   force =    -0.00021436   -0.00000817    0.00021188
     atom   79 type  1   force =     0.00043764   -0.00025062   -0.00016181
     atom   80 type  1   force =    -0.00026439    0.00027435   -0.00004578
     atom   81 type  1   force =    -0.00006725   -0.00031874   -0.00034293
     atom   82 type  1   force =    -0.00021471    0.00014933   -0.00015370
     atom   83 type  1   force =    -0.00014320   -0.00002744   -0.00002745
     atom   84 type  1   force =    -0.00004507    0.00036622    0.00036622
     atom   85 type  1   force =    -0.00003877   -0.00018035   -0.00017663
     atom   86 type  1   force =    -0.00021188   -0.00000817    0.00021436
     atom   87 type  1   force =     0.00034924   -0.00003018   -0.00034925
     atom   88 type  1   force =    -0.00001783   -0.00009123    0.00001782
     atom   89 type  1   force =     0.00013371   -0.00019630    0.00013477
     atom   90 type  1   force =    -0.00033411   -0.00005638    0.00033640
     atom   91 type  1   force =     0.00003410   -0.00022722   -0.00030314
     atom   92 type  1   force =     0.00011948    0.00010063    0.00003852
     atom   93 type  1   force =     0.00044926   -0.00008461   -0.00008461
     atom   94 type  1   force =     0.00018465   -0.00003815   -0.00003815
     atom   95 type  1   force =     0.00016182   -0.00025063   -0.00043764
     atom   96 type  1   force =     0.00004579    0.00027435    0.00026439
     atom   97 type  1   force =    -0.00013477   -0.00019631   -0.00013371
     atom   98 type  1   force =    -0.00033640   -0.00005638    0.00033410
     atom   99 type  1   force =    -0.00007710   -0.00006039    0.00007710
     atom  100 type  1   force =    -0.00015374    0.00025810    0.00015373
     atom  101 type  1   force =     0.00013917   -0.00031039   -0.00013917
     atom  102 type  1   force =    -0.00001237    0.00012175    0.00001238
     atom  103 type  1   force =     0.00044434   -0.00027739   -0.00003985
     atom  104 type  1   force =     0.00014160    0.00028681    0.00002320
     atom  105 type  1   force =     0.00014477   -0.00004282   -0.00004282
     atom  106 type  1   force =    -0.00027181   -0.00002101   -0.00002101
     atom  107 type  1   force =    -0.00003693   -0.00024333   -0.00024685
     atom  108 type  1   force =    -0.00015833    0.00046327    0.00026715
     atom  109 type  1   force =     0.00008557   -0.00022223   -0.00011307
     atom  110 type  1   force =    -0.00010390    0.00021246    0.00007671
     atom  111 type  1   force =     0.00003985   -0.00027739   -0.00044434
     atom  112 type  1   force =    -0.00002320    0.00028681   -0.00014160
     atom  113 type  1   force =     0.00020024    0.00022355   -0.00020024
     atom  114 type  1   force =    -0.00036859    0.00060179    0.00036859
     atom  115 type  1   force =     0.00001433   -0.00051069   -0.00051068
     atom  116 type  1   force =    -0.00030404   -0.00014102   -0.00014102
     atom  117 type  1   force =     0.00018035   -0.00017663    0.00003878
     atom  118 type  1   force =     0.00000817    0.00021436    0.00021188
     atom  119 type  1   force =     0.00025062   -0.00043764   -0.00016182
     atom  120 type  1   force =    -0.00027435    0.00026438   -0.00004578
     atom  121 type  1   force =     0.00004281   -0.00004282   -0.00014477
     atom  122 type  1   force =     0.00002101   -0.00002101    0.00027182
     atom  123 type  1   force =     0.00051068   -0.00051069   -0.00001434
     atom  124 type  1   force =     0.00014101   -0.00014102    0.00030404
     atom  125 type  2   force =    -0.00010367    0.00010368    0.00010368
     atom  126 type  2   force =     0.00018813   -0.00018814   -0.00018813
     atom  127 type  1   force =    -0.00015896    0.00015896   -0.00026538
     atom  128 type  1   force =    -0.00053677    0.00053678    0.00005322
     atom  129 type  1   force =    -0.00001599    0.00001599   -0.00025919
     atom  130 type  1   force =    -0.00006339    0.00006340    0.00014033
     atom  131 type  1   force =     0.00024685   -0.00024333    0.00003693
     atom  132 type  1   force =    -0.00026716    0.00046327    0.00015833
     atom  133 type  1   force =    -0.00003877   -0.00017663   -0.00018035
     atom  134 type  1   force =    -0.00021188    0.00021435   -0.00000818
     atom  135 type  1   force =     0.00026537    0.00015897    0.00015896
     atom  136 type  1   force =    -0.00005322    0.00053677    0.00053677
     atom  137 type  1   force =     0.00038828   -0.00056083   -0.00038827
     atom  138 type  1   force =    -0.00015012   -0.00019524    0.00015012
     atom  139 type  1   force =    -0.00000538   -0.00026028    0.00013354
     atom  140 type  1   force =    -0.00005409    0.00029673    0.00043611
     atom  141 type  1   force =     0.00011307   -0.00022223   -0.00008557
     atom  142 type  1   force =    -0.00007671    0.00021246    0.00010391
     atom  143 type  1   force =     0.00016181   -0.00043764   -0.00025062
     atom  144 type  1   force =     0.00004579    0.00026438    0.00027435
     atom  145 type  1   force =     0.00025919    0.00001599    0.00001599
     atom  146 type  1   force =    -0.00014033    0.00006339    0.00006339
     atom  147 type  1   force =    -0.00013354   -0.00026028    0.00000538
     atom  148 type  1   force =    -0.00043612    0.00029672    0.00005408
     atom  149 type  1   force =     0.00001877   -0.00011544   -0.00001876
     atom  150 type  1   force =    -0.00013353    0.00030133    0.00013352
     atom  151 type  1   force =     0.00016855   -0.00027463   -0.00016855
     atom  152 type  1   force =     0.00008750    0.00005886   -0.00008750
     atom  153 type  1   force =     0.00034294    0.00006726   -0.00031874
     atom  154 type  1   force =     0.00015369    0.00021470    0.00014933
     atom  155 type  1   force =    -0.00003693   -0.00024684   -0.00024333
     atom  156 type  1   force =    -0.00015833    0.00026716    0.00046327
     atom  157 type  1   force =    -0.00015965    0.00004644    0.00004645
     atom  158 type  1   force =    -0.00043118    0.00008971    0.00008971
     atom  159 type  1   force =    -0.00010964   -0.00010519   -0.00004810
     atom  160 type  1   force =    -0.00002634    0.00021978    0.00028960
     atom  161 type  1   force =     0.00031875    0.00006726   -0.00034294
     atom  162 type  1   force =    -0.00014932    0.00021470   -0.00015368
     atom  163 type  1   force =     0.00002745    0.00014320   -0.00002745
     atom  164 type  1   force =    -0.00036623    0.00004507    0.00036623
     atom  165 type  1   force =     0.00018036    0.00003878   -0.00017663
     atom  166 type  1   force =     0.00000817    0.00021187    0.00021436
     atom  167 type  1   force =     0.00003018   -0.00034924   -0.00034924
     atom  168 type  1   force =     0.00009123    0.00001782    0.00001782
     atom  169 type  1   force =     0.00019630   -0.00013371    0.00013476
     atom  170 type  1   force =     0.00005637    0.00033410    0.00033640
     atom  171 type  1   force =     0.00024333   -0.00024685    0.00003692
     atom  172 type  1   force =    -0.00046326    0.00026716    0.00015833
     atom  173 type  1   force =     0.00017663    0.00003878   -0.00018035
     atom  174 type  1   force =    -0.00021436    0.00021188   -0.00000817
     atom  175 type  1   force =    -0.00015896   -0.00026537    0.00015896
     atom  176 type  1   force =    -0.00053677    0.00005321    0.00053677
     atom  177 type  1   force =     0.00056082   -0.00038827   -0.00038827
     atom  178 type  1   force =     0.00019524    0.00015012    0.00015012
     atom  179 type  1   force =     0.00026028    0.00000538    0.00013354
     atom  180 type  1   force =    -0.00029673    0.00005408    0.00043612
     atom  181 type  1   force =    -0.00004643    0.00004643    0.00015965
     atom  182 type  1   force =    -0.00008972    0.00008972    0.00043119
     atom  183 type  1   force =     0.00034924   -0.00034924   -0.00003018
     atom  184 type  1   force =    -0.00001782    0.00001782   -0.00009124
     atom  185 type  1   force =     0.00038828   -0.00038827   -0.00056082
     atom  186 type  1   force =    -0.00015012    0.00015012   -0.00019524
     atom  187 type  1   force =     0.00005793   -0.00005792   -0.00005792
     atom  188 type  1   force =    -0.00060942    0.00060942    0.00060943
     atom  189 type  1   force =    -0.00048370    0.00048371    0.00030703
     atom  190 type  1   force =    -0.00064539    0.00064539    0.00053002
     atom  191 type  1   force =     0.00004810   -0.00010519    0.00010963
     atom  192 type  1   force =    -0.00028960    0.00021979    0.00002635
     atom  193 type  1   force =    -0.00013477   -0.00013371   -0.00019630
     atom  194 type  1   force =    -0.00033640    0.00033411   -0.00005637
     atom  195 type  1   force =    -0.00013354    0.00000538   -0.00026028
     atom  196 type  1   force =    -0.00043611    0.00005408    0.00029673
     atom  197 type  1   force =    -0.00030704    0.00048370    0.00048371
     atom  198 type  1   force =    -0.00053003    0.00064539    0.00064539
     atom  199 type  1   force =    -0.00021293    0.00025768    0.00021292
     atom  200 type  1   force =    -0.00033647    0.00040027    0.00033648
     atom  201 type  1   force =     0.00016350   -0.00008505   -0.00016350
     atom  202 type  1   force =    -0.00004407    0.00015541    0.00004407
     atom  203 type  1   force =     0.00030313   -0.00003410   -0.00022722
     atom  204 type  1   force =    -0.00003852   -0.00011947    0.00010062
     atom  205 type  1   force =     0.00008557   -0.00011308   -0.00022223
     atom  206 type  1   force =    -0.00010391    0.00007671    0.00021245
     atom  207 type  1   force =    -0.00010963   -0.00004811   -0.00010519
     atom  208 type  1   force =    -0.00002635    0.00028959    0.00021978
     atom  209 type  1   force =     0.00016653   -0.00006400   -0.00006400
     atom  210 type  1   force =    -0.00006591    0.00014800    0.00014800
     atom  211 type  1   force =     0.00022723   -0.00003409   -0.00030314
     atom  212 type  1   force =    -0.00010062   -0.00011947    0.00003852
     atom  213 type  1   force =     0.00008461   -0.00044926   -0.00008461
     atom  214 type  1   force =     0.00003815   -0.00018466   -0.00003816
     atom  215 type  1   force =     0.00025063   -0.00016181   -0.00043764
     atom  216 type  1   force =    -0.00027435   -0.00004579    0.00026438
     atom  217 type  1   force =     0.00019631    0.00013478   -0.00013371
     atom  218 type  1   force =     0.00005638    0.00033639    0.00033410
     atom  219 type  1   force =     0.00006040    0.00007710    0.00007710
     atom  220 type  1   force =    -0.00025811    0.00015373    0.00015372
     atom  221 type  1   force =     0.00022223   -0.00011308   -0.00008557
     atom  222 type  1   force =    -0.00021246    0.00007672    0.00010391
     atom  223 type  1   force =     0.00043764   -0.00016181   -0.00025062
     atom  224 type  1   force =    -0.00026439   -0.00004579    0.00027435
     atom  225 type  1   force =    -0.00001599   -0.00025918    0.00001599
     atom  226 type  1   force =    -0.00006340    0.00014032    0.00006339
     atom  227 type  1   force =     0.00026027    0.00013354    0.00000538
     atom  228 type  1   force =    -0.00029672    0.00043612    0.00005408
     atom  229 type  1   force =     0.00011544   -0.00001877   -0.00001876
     atom  230 type  1   force =    -0.00030133    0.00013353    0.00013353
     atom  231 type  1   force =     0.00010520   -0.00004811    0.00010963
     atom  232 type  1   force =    -0.00021979    0.00028959    0.00002634
     atom  233 type  1   force =     0.00013371    0.00013477   -0.00019630
     atom  234 type  1   force =    -0.00033410    0.00033640   -0.00005638
     atom  235 type  1   force =    -0.00000538    0.00013354   -0.00026027
     atom  236 type  1   force =    -0.00005408    0.00043611    0.00029672
     atom  237 type  1   force =    -0.00048371    0.00030704    0.00048371
     atom  238 type  1   force =    -0.00064539    0.00053002    0.00064539
     atom  239 type  1   force =    -0.00025768    0.00021293    0.00021293
     atom  240 type  1   force =    -0.00040029    0.00033647    0.00033647
     atom  241 type  1   force =     0.00006400   -0.00006399   -0.00016653
     atom  242 type  1   force =    -0.00014800    0.00014800    0.00006591
     atom  243 type  1   force =    -0.00007711    0.00007710   -0.00006040
     atom  244 type  1   force =    -0.00015373    0.00015373    0.00025810
     atom  245 type  1   force =     0.00001877   -0.00001876   -0.00011545
     atom  246 type  1   force =    -0.00013353    0.00013353    0.00030133
     atom  247 type  1   force =    -0.00021293    0.00021293    0.00025769
     atom  248 type  1   force =    -0.00033647    0.00033647    0.00040028
     atom  249 type  1   force =     0.00002809   -0.00002808   -0.00002808
     atom  250 type  1   force =    -0.00010668    0.00010668    0.00010668

     Total force =     0.006944     Total SCF correction =     0.000003


     Computing stress (Cartesian axis) and pressure

          total   stress  (Ry/bohr**3)                   (kbar)     P=   -5.53
  -0.00003760  -0.00000562  -0.00000562         -5.53     -0.83     -0.83
  -0.00000562  -0.00003760   0.00000562         -0.83     -5.53      0.83
  -0.00000562   0.00000562  -0.00003760         -0.83      0.83     -5.53


     Writing output data file n2.save
 
     init_run     :      3.61s CPU      3.98s WALL (       2 calls)
     electrons    :   2179.59s CPU   2205.61s WALL (      11 calls)
     update_pot   :      2.34s CPU      2.87s WALL (       9 calls)
     forces       :     14.08s CPU     14.70s WALL (      11 calls)
     stress       :    131.41s CPU    131.92s WALL (      11 calls)

     Called by init_run:
     wfcinit      :      2.91s CPU      3.17s WALL (       2 calls)
     potinit      :      0.20s CPU      0.21s WALL (       2 calls)

     Called by electrons:
     c_bands      :   2129.35s CPU   2153.24s WALL (     152 calls)
     sum_band     :     44.15s CPU     45.49s WALL (     152 calls)
     v_of_rho     :      2.09s CPU      2.12s WALL (     158 calls)
     mix_rho      :      2.91s CPU      2.96s WALL (     152 calls)

     Called by c_bands:
     init_us_2    :      2.51s CPU      3.40s WALL (     306 calls)
     cegterg      :   2119.70s CPU   2143.20s WALL (     153 calls)

     Called by sum_band:

     Called by *egterg:
     h_psi        :    439.37s CPU    443.75s WALL (    1354 calls)
     g_psi        :      0.86s CPU      0.87s WALL (    1199 calls)
     cdiaghg      :   1460.58s CPU   1472.89s WALL (    1337 calls)

     Called by h_psi:
     h_psi:pot    :    437.70s CPU    442.04s WALL (    1354 calls)
     h_psi:calbec :     98.69s CPU     99.56s WALL (    1354 calls)
     vloc_psi     :    243.36s CPU    245.54s WALL (    1354 calls)
     add_vuspsi   :     95.63s CPU     96.94s WALL (    1354 calls)

     General routines
     calbec       :    110.43s CPU    111.38s WALL (    1409 calls)
     fft          :      2.15s CPU      2.23s WALL (    1834 calls)
     ffts         :      1.70s CPU      1.72s WALL (    2344 calls)
     fftw         :    266.72s CPU    269.18s WALL (  621636 calls)
 
     Parallel routines
     fft_scatter  :    166.00s CPU    167.69s WALL (  625814 calls)
 
     PWSCF        : 38m57.84s CPU    39m33.32s WALL

 
   This run was terminated on:   9:59:13  11Jan2021            

=------------------------------------------------------------------------------=
   JOB DONE.
=------------------------------------------------------------------------------=
