
     Program PHONON v.6.1 (svn rev. 13369) starts on  8Dec2020 at 10:46:12 

     This program is part of the open-source Quantum ESPRESSO suite
     for quantum simulation of materials; please cite
         "P. Giannozzi et al., J. Phys.:Condens. Matter 21 395502 (2009);
          URL http://www.quantum-espresso.org", 
     in publications or presentations arising from this work. More details at
     http://www.quantum-espresso.org/quote

     Parallel version (MPI & OpenMP), running on      40 processor cores
     Number of MPI processes:                40
     Threads/MPI process:                     1
     R & G space division:  proc/nbgrp/npool/nimage =      40

     Reading data from directory:
     ./c.save

   Info: using nr1, nr2, nr3 values from input

   Info: using nr1, nr2, nr3 values from input

     IMPORTANT: XC functional enforced from input :
     Exchange-correlation      = PZ ( 1  1  0  0 0 0)
     Any further DFT definition will be discarded
     Please, verify this is what you really want

               file C.pz-mt.fhi.UPF: wavefunction(s)  3d renormalized
 
     Parallelization info
     --------------------
     sticks:   dense  smooth     PW     G-vecs:    dense   smooth      PW
     Min          14      14      4                  242      242      40
     Max          15      15      5                  248      248      43
     Sum         595     595    187                 9841     9841    1639
 


     Dynamical matrices for ( 2, 2, 2)  uniform grid of q-points
     (   3q-points):
       N         xq(1)         xq(2)         xq(3) 
       1   0.000000000   0.000000000   0.000000000
       2   0.503943239  -0.503943239   0.503943239
       3   0.000000000  -1.007886479   0.000000000

     Calculation of q =    0.0000000   0.0000000   0.0000000

                                                                                

     bravais-lattice index     =            2
     lattice parameter (alat)  =       6.7034  a.u.
     unit-cell volume          =      73.5522 (a.u.)^3
     number of atoms/cell      =            2
     number of atomic types    =            1
     kinetic-energy cut-off    =     100.0000  Ry
     charge density cut-off    =     400.0000  Ry
     convergence threshold     =      1.0E-24
     beta                      =       0.7000
     number of iterations used =            4
     Exchange-correlation      = PZ ( 1  1  0  0 0 0)


     celldm(1)=    6.70343  celldm(2)=    0.00000  celldm(3)=    0.00000
     celldm(4)=    0.00000  celldm(5)=    0.00000  celldm(6)=    0.00000

     crystal axes: (cart. coord. in units of alat)
               a(1) = ( -0.4961 -0.0000  0.4961 )  
               a(2) = (  0.0000  0.4961  0.4961 )  
               a(3) = ( -0.4961  0.4961 -0.0000 )  

     reciprocal axes: (cart. coord. in units 2 pi/alat)
               b(1) = ( -1.0079 -1.0079  1.0079 )  
               b(2) = (  1.0079  1.0079  1.0079 )  
               b(3) = ( -1.0079  1.0079 -1.0079 )  


     Atoms inside the unit cell: 

     Cartesian axes

     site n.  atom      mass           positions (alat units)
        1     C   12.0110   tau(    1) = (   -0.00000   -0.00000   -0.00000  )
        2     C   12.0110   tau(    2) = (   -0.24804    0.24804    0.24804  )

     Computing dynamical matrix for 
                    q = (   0.0000000   0.0000000   0.0000000 )
 
     25 Sym.Ops. (with q -> -q+G )


     G cutoff =  455.2960  (    242 G-vectors)     FFT grid: ( 30, 30, 30)
     number of k points=     3

     PseudoPot. # 1 for  C read from file:
     ../C.pz-mt.fhi.UPF
     MD5 check sum: b7c38bc33a0cf75f44be89b84470f298
     Pseudo is Norm-conserving, Zval =  4.0
     Generated using FHI98PP, converted with fhi2upf.x v.5.0.2
     Using radial grid of  461 points,  2 beta functions with: 
                l(1) =   0
                l(2) =   1

     Mode symmetry, T_d (-43m)  point group:


     Electric field:
     Dielectric constant
     Born effective charges in two ways 


     Atomic displacements:
     There are   2 irreducible representations

     Representation     1      3 modes -T_2  G_15 P_4  To be done

     Representation     2      3 modes -T_2  G_15 P_4  To be done



     Alpha used in Ewald sum =   2.8000
     PHONON       :     0.38s CPU         0.76s WALL


     Electric Fields Calculation

      iter #   1 total cpu time :     1.1 secs   av.it.:   5.3
      thresh= 1.000E-02 alpha_mix =  0.700 |ddv_scf|^2 =  4.330E-08

      iter #   2 total cpu time :     1.5 secs   av.it.:   9.0
      thresh= 2.081E-05 alpha_mix =  0.700 |ddv_scf|^2 =  3.395E-10

      iter #   3 total cpu time :     1.6 secs   av.it.:   9.3
      thresh= 1.843E-06 alpha_mix =  0.700 |ddv_scf|^2 =  2.429E-11

      iter #   4 total cpu time :     1.8 secs   av.it.:   9.1
      thresh= 4.929E-07 alpha_mix =  0.700 |ddv_scf|^2 =  2.784E-14

      iter #   5 total cpu time :     1.9 secs   av.it.:   9.2
      thresh= 1.668E-08 alpha_mix =  0.700 |ddv_scf|^2 =  1.312E-17

      iter #   6 total cpu time :     2.0 secs   av.it.:   9.2
      thresh= 3.622E-10 alpha_mix =  0.700 |ddv_scf|^2 =  6.297E-20

      iter #   7 total cpu time :     2.6 secs   av.it.:   8.9
      thresh= 2.509E-11 alpha_mix =  0.700 |ddv_scf|^2 =  5.854E-24

      iter #   8 total cpu time :     4.1 secs   av.it.:   9.7
      thresh= 2.420E-13 alpha_mix =  0.700 |ddv_scf|^2 =  3.267E-25

     End of electric fields calculation

          Dielectric constant in cartesian axis 

          (      15.625526805      -0.000000000      -0.000000000 )
          (      -0.000000000      15.625526805       0.000000000 )
          (      -0.000000000       0.000000000      15.625526805 )

          Effective charges (d Force / dE) in cartesian axis

           atom      1   C  
      Ex  (       -2.41573       -0.00000        0.00000 )
      Ey  (       -0.00000       -2.41573        0.00000 )
      Ez  (       -0.00000        0.00000       -2.41573 )
           atom      2   C  
      Ex  (       -2.41572       -0.00000       -0.00000 )
      Ey  (        0.00000       -2.41572        0.00000 )
      Ez  (       -0.00000       -0.00000       -2.41572 )


     Representation #  1 modes #   1  2  3

     Self-consistent Calculation

      iter #   1 total cpu time :     5.1 secs   av.it.:   6.3
      thresh= 1.000E-02 alpha_mix =  0.700 |ddv_scf|^2 =  1.456E-07

      iter #   2 total cpu time :     5.5 secs   av.it.:  10.0
      thresh= 3.815E-05 alpha_mix =  0.700 |ddv_scf|^2 =  5.390E-10

      iter #   3 total cpu time :     5.9 secs   av.it.:   9.9
      thresh= 2.322E-06 alpha_mix =  0.700 |ddv_scf|^2 =  1.200E-11

      iter #   4 total cpu time :     6.2 secs   av.it.:   9.4
      thresh= 3.464E-07 alpha_mix =  0.700 |ddv_scf|^2 =  6.804E-13

      iter #   5 total cpu time :     6.4 secs   av.it.:   9.4
      thresh= 8.249E-08 alpha_mix =  0.700 |ddv_scf|^2 =  5.492E-16

      iter #   6 total cpu time :     6.7 secs   av.it.:  10.1
      thresh= 2.344E-09 alpha_mix =  0.700 |ddv_scf|^2 =  5.532E-19

      iter #   7 total cpu time :     6.8 secs   av.it.:   9.8
      thresh= 7.438E-11 alpha_mix =  0.700 |ddv_scf|^2 =  2.737E-20

      iter #   8 total cpu time :     6.9 secs   av.it.:  10.2
      thresh= 1.654E-11 alpha_mix =  0.700 |ddv_scf|^2 =  1.304E-22

      iter #   9 total cpu time :     7.2 secs   av.it.:   9.2
      thresh= 1.142E-12 alpha_mix =  0.700 |ddv_scf|^2 =  4.326E-24

      iter #  10 total cpu time :     7.9 secs   av.it.:  10.1
      thresh= 2.080E-13 alpha_mix =  0.700 |ddv_scf|^2 =  4.203E-27

     End of self-consistent calculation

     Convergence has been achieved 


     Representation #  2 modes #   4  5  6

     Self-consistent Calculation

      iter #   1 total cpu time :     9.1 secs   av.it.:   6.3
      thresh= 1.000E-02 alpha_mix =  0.700 |ddv_scf|^2 =  1.455E-07

      iter #   2 total cpu time :     9.8 secs   av.it.:  10.0
      thresh= 3.815E-05 alpha_mix =  0.700 |ddv_scf|^2 =  5.413E-10

      iter #   3 total cpu time :    10.0 secs   av.it.:   9.9
      thresh= 2.327E-06 alpha_mix =  0.700 |ddv_scf|^2 =  1.200E-11

      iter #   4 total cpu time :    10.1 secs   av.it.:   9.3
      thresh= 3.464E-07 alpha_mix =  0.700 |ddv_scf|^2 =  6.805E-13

      iter #   5 total cpu time :    10.3 secs   av.it.:   9.4
      thresh= 8.249E-08 alpha_mix =  0.700 |ddv_scf|^2 =  5.537E-16

      iter #   6 total cpu time :    10.4 secs   av.it.:  10.0
      thresh= 2.353E-09 alpha_mix =  0.700 |ddv_scf|^2 =  5.544E-19

      iter #   7 total cpu time :    10.5 secs   av.it.:  10.0
      thresh= 7.446E-11 alpha_mix =  0.700 |ddv_scf|^2 =  2.751E-20

      iter #   8 total cpu time :    10.6 secs   av.it.:  10.2
      thresh= 1.659E-11 alpha_mix =  0.700 |ddv_scf|^2 =  1.164E-22

      iter #   9 total cpu time :    10.8 secs   av.it.:   9.4
      thresh= 1.079E-12 alpha_mix =  0.700 |ddv_scf|^2 =  4.302E-24

      iter #  10 total cpu time :    10.9 secs   av.it.:  10.1
      thresh= 2.074E-13 alpha_mix =  0.700 |ddv_scf|^2 =  2.806E-27

     End of self-consistent calculation

     Convergence has been achieved 
 
     Number of q in the star =    1
     List of q in the star:
          1   0.000000000   0.000000000   0.000000000

          Dielectric constant in cartesian axis 

          (      15.625526805      -0.000000000      -0.000000000 )
          (      -0.000000000      15.625526805       0.000000000 )
          (      -0.000000000       0.000000000      15.625526805 )

          Effective charges (d Force / dE) in cartesian axis

           atom      1   C  
      Ex  (       -2.41573       -0.00000        0.00000 )
      Ey  (       -0.00000       -2.41573        0.00000 )
      Ez  (       -0.00000        0.00000       -2.41573 )
           atom      2   C  
      Ex  (       -2.41572       -0.00000       -0.00000 )
      Ey  (        0.00000       -2.41572        0.00000 )
      Ez  (       -0.00000       -0.00000       -2.41572 )

          Effective charges (d P / du) in cartesian axis 

           atom      1   C  
      Px  (       -2.41573        0.00000        0.00000 )
      Py  (        0.00000       -2.41573       -0.00000 )
      Pz  (        0.00000       -0.00000       -2.41573 )
           atom      2   C  
      Px  (       -2.41572        0.00000       -0.00000 )
      Py  (        0.00000       -2.41572       -0.00000 )
      Pz  (       -0.00000        0.00000       -2.41572 )

     Diagonalizing the dynamical matrix

     q = (    0.000000000   0.000000000   0.000000000 ) 

 **************************************************************************
     freq (    1) =     -18.571909 [THz] =    -619.492207 [cm-1]
     freq (    2) =     -18.571909 [THz] =    -619.492207 [cm-1]
     freq (    3) =     -18.571909 [THz] =    -619.492207 [cm-1]
     freq (    4) =      45.281039 [THz] =    1510.412864 [cm-1]
     freq (    5) =      45.281039 [THz] =    1510.412864 [cm-1]
     freq (    6) =      45.281039 [THz] =    1510.412864 [cm-1]
 **************************************************************************

     Mode symmetry, T_d (-43m)  point group:

     freq (  1 -  3) =       -619.5  [cm-1]   --> T_2  G_15 P_4   I+R
     freq (  4 -  6) =       1510.4  [cm-1]   --> T_2  G_15 P_4   I+R

     Calculation of q =    0.5039432  -0.5039432   0.5039432

   Info: using nr1, nr2, nr3 values from input

   Info: using nr1, nr2, nr3 values from input
 
     Parallelization info
     --------------------
     sticks:   dense  smooth     PW     G-vecs:    dense   smooth      PW
     Min          14      14      4                  242      242      45
     Max          15      15      5                  248      248      50
     Sum         595     595    199                 9841     9841    1917
 


     bravais-lattice index     =            2
     lattice parameter (alat)  =       6.7034  a.u.
     unit-cell volume          =      73.5522 (a.u.)^3
     number of atoms/cell      =            2
     number of atomic types    =            1
     number of electrons       =         8.00
     number of Kohn-Sham states=            8
     kinetic-energy cutoff     =     100.0000  Ry
     charge density cutoff     =     400.0000  Ry
     Exchange-correlation      = PZ ( 1  1  0  0 0 0)

     celldm(1)=   6.703426  celldm(2)=   0.000000  celldm(3)=   0.000000
     celldm(4)=   0.000000  celldm(5)=   0.000000  celldm(6)=   0.000000

     crystal axes: (cart. coord. in units of alat)
               a(1) = (  -0.496088  -0.000000   0.496088 )  
               a(2) = (   0.000000   0.496088   0.496088 )  
               a(3) = (  -0.496088   0.496088  -0.000000 )  

     reciprocal axes: (cart. coord. in units 2 pi/alat)
               b(1) = ( -1.007886 -1.007886  1.007886 )  
               b(2) = (  1.007886  1.007886  1.007886 )  
               b(3) = ( -1.007886  1.007886 -1.007886 )  


     PseudoPot. # 1 for  C read from file:
     ../C.pz-mt.fhi.UPF
     MD5 check sum: b7c38bc33a0cf75f44be89b84470f298
     Pseudo is Norm-conserving, Zval =  4.0
     Generated using FHI98PP, converted with fhi2upf.x v.5.0.2
     Using radial grid of  461 points,  2 beta functions with: 
                l(1) =   0
                l(2) =   1

     atomic species   valence    mass     pseudopotential
        C              4.00    12.01100      C( 1.00)

     24 Sym. Ops. (no inversion) found



   Cartesian axes

     site n.     atom                  positions (alat units)
         1           C   tau(   1) = (  -0.0000000  -0.0000000  -0.0000000  )
         2           C   tau(   2) = (  -0.2480438   0.2480438   0.2480438  )

     number of k points=     8
                       cart. coord. in units 2pi/alat
        k(    1) = (   0.0000000   0.0000000   0.0000000), wk =   0.2500000
        k(    2) = (   0.5039432  -0.5039432   0.5039432), wk =   0.0000000
        k(    3) = (   0.5039432  -0.5039432   0.5039432), wk =   0.2500000
        k(    4) = (   1.0078865  -1.0078865   1.0078865), wk =   0.0000000
        k(    5) = (   0.0000000  -1.0078865   0.0000000), wk =   0.7500000
        k(    6) = (   0.5039432  -1.5118297   0.5039432), wk =   0.0000000
        k(    7) = (  -0.5039432   0.5039432   0.5039432), wk =   0.7500000
        k(    8) = (   0.0000000  -0.0000000   1.0078865), wk =   0.0000000

     Dense  grid:     9841 G-vectors     FFT dimensions: (  30,  30,  30)

     Estimated max dynamical RAM per process >       0.34MB

     Estimated total allocated dynamical RAM >      13.51MB

     The potential is recalculated from file :
     ./_ph0/c.q_2/c.save/charge-density.dat

     Starting wfc are   18 atomic wfcs

     Band Structure Calculation
     Davidson diagonalization with overlap

     ethr =  1.25E-10,  avg # of iterations =  8.0

     total cpu time spent up to now is        0.4 secs

     End of band structure calculation

          k = 0.0000 0.0000 0.0000 (  1243 PWs)   bands (ev):

    -8.0800  13.7227  13.7227  13.7227  19.3955  19.3955  19.3955  28.0350

          k = 0.5039-0.5039 0.5039 (  1224 PWs)   bands (ev):

    -1.9931  -0.0131  10.8428  10.8428  22.3035  22.3035  23.2711  29.5251

          k = 0.5039-0.5039 0.5039 (  1224 PWs)   bands (ev):

    -1.9931  -0.0131  10.8428  10.8428  22.3035  22.3035  23.2711  29.5251

          k = 1.0079-1.0079 1.0079 (  1243 PWs)   bands (ev):

    -8.0800  13.7227  13.7227  13.7227  19.3955  19.3955  19.3955  28.0350

          k = 0.0000-1.0079 0.0000 (  1234 PWs)   bands (ev):

     0.8971   0.8971   7.2216   7.2216  18.5886  18.5886  30.9401  30.9401

          k = 0.5039-1.5118 0.5039 (  1224 PWs)   bands (ev):

    -1.9931  -0.0131  10.8428  10.8428  22.3035  22.3035  23.2711  29.5251

          k =-0.5039 0.5039 0.5039 (  1224 PWs)   bands (ev):

    -1.9931  -0.0131  10.8428  10.8428  22.3035  22.3035  23.2711  29.5251

          k = 0.0000-0.0000 1.0079 (  1234 PWs)   bands (ev):

     0.8971   0.8971   7.2216   7.2216  18.5886  18.5886  30.9401  30.9401

     highest occupied, lowest unoccupied level (ev):    13.7227   18.5886

     Writing output data file c.save

                                                                                

     bravais-lattice index     =            2
     lattice parameter (alat)  =       6.7034  a.u.
     unit-cell volume          =      73.5522 (a.u.)^3
     number of atoms/cell      =            2
     number of atomic types    =            1
     kinetic-energy cut-off    =     100.0000  Ry
     charge density cut-off    =     400.0000  Ry
     convergence threshold     =      1.0E-24
     beta                      =       0.7000
     number of iterations used =            4
     Exchange-correlation      = PZ ( 1  1  0  0 0 0)


     celldm(1)=    6.70343  celldm(2)=    0.00000  celldm(3)=    0.00000
     celldm(4)=    0.00000  celldm(5)=    0.00000  celldm(6)=    0.00000

     crystal axes: (cart. coord. in units of alat)
               a(1) = ( -0.4961 -0.0000  0.4961 )  
               a(2) = (  0.0000  0.4961  0.4961 )  
               a(3) = ( -0.4961  0.4961 -0.0000 )  

     reciprocal axes: (cart. coord. in units 2 pi/alat)
               b(1) = ( -1.0079 -1.0079  1.0079 )  
               b(2) = (  1.0079  1.0079  1.0079 )  
               b(3) = ( -1.0079  1.0079 -1.0079 )  


     Atoms inside the unit cell: 

     Cartesian axes

     site n.  atom      mass           positions (alat units)
        1     C   12.0110   tau(    1) = (   -0.00000   -0.00000   -0.00000  )
        2     C   12.0110   tau(    2) = (   -0.24804    0.24804    0.24804  )

     Computing dynamical matrix for 
                    q = (   0.5039432  -0.5039432   0.5039432 )
 
      7 Sym.Ops. (with q -> -q+G )


     G cutoff =  455.2960  (    242 G-vectors)     FFT grid: ( 30, 30, 30)
     number of k points=     8

     PseudoPot. # 1 for  C read from file:
     ../C.pz-mt.fhi.UPF
     MD5 check sum: b7c38bc33a0cf75f44be89b84470f298
     Pseudo is Norm-conserving, Zval =  4.0
     Generated using FHI98PP, converted with fhi2upf.x v.5.0.2
     Using radial grid of  461 points,  2 beta functions with: 
                l(1) =   0
                l(2) =   1

     Mode symmetry, C_3v (3m)   point group:


     Atomic displacements:
     There are   4 irreducible representations

     Representation     1      1 modes -A_1  L_1  To be done

     Representation     2      1 modes -A_1  L_1  To be done

     Representation     3      2 modes -E    L_3  To be done

     Representation     4      2 modes -E    L_3  To be done



     Alpha used in Ewald sum =   2.8000
     PHONON       :     9.47s CPU        12.24s WALL



     Representation #  1 mode #   1

     Self-consistent Calculation

      iter #   1 total cpu time :    12.3 secs   av.it.:   6.8
      thresh= 1.000E-02 alpha_mix =  0.700 |ddv_scf|^2 =  1.183E-04

      iter #   2 total cpu time :    12.5 secs   av.it.:   9.0
      thresh= 1.088E-03 alpha_mix =  0.700 |ddv_scf|^2 =  1.577E-04

      iter #   3 total cpu time :    12.5 secs   av.it.:   8.0
      thresh= 1.256E-03 alpha_mix =  0.700 |ddv_scf|^2 =  6.002E-07

      iter #   4 total cpu time :    12.6 secs   av.it.:   8.8
      thresh= 7.747E-05 alpha_mix =  0.700 |ddv_scf|^2 =  4.726E-09

      iter #   5 total cpu time :    12.7 secs   av.it.:   8.5
      thresh= 6.874E-06 alpha_mix =  0.700 |ddv_scf|^2 =  4.021E-10

      iter #   6 total cpu time :    12.7 secs   av.it.:   8.8
      thresh= 2.005E-06 alpha_mix =  0.700 |ddv_scf|^2 =  5.230E-12

      iter #   7 total cpu time :    12.7 secs   av.it.:   8.2
      thresh= 2.287E-07 alpha_mix =  0.700 |ddv_scf|^2 =  1.899E-13

      iter #   8 total cpu time :    12.8 secs   av.it.:   8.5
      thresh= 4.357E-08 alpha_mix =  0.700 |ddv_scf|^2 =  5.541E-16

      iter #   9 total cpu time :    12.8 secs   av.it.:   8.8
      thresh= 2.354E-09 alpha_mix =  0.700 |ddv_scf|^2 =  1.578E-17

      iter #  10 total cpu time :    12.9 secs   av.it.:   9.0
      thresh= 3.972E-10 alpha_mix =  0.700 |ddv_scf|^2 =  1.661E-18

      iter #  11 total cpu time :    12.9 secs   av.it.:   8.2
      thresh= 1.289E-10 alpha_mix =  0.700 |ddv_scf|^2 =  4.031E-20

      iter #  12 total cpu time :    12.9 secs   av.it.:   8.5
      thresh= 2.008E-11 alpha_mix =  0.700 |ddv_scf|^2 =  7.242E-21

      iter #  13 total cpu time :    13.0 secs   av.it.:   8.2
      thresh= 8.510E-12 alpha_mix =  0.700 |ddv_scf|^2 =  6.190E-23

      iter #  14 total cpu time :    13.0 secs   av.it.:   8.8
      thresh= 7.868E-13 alpha_mix =  0.700 |ddv_scf|^2 =  1.163E-24

      iter #  15 total cpu time :    13.2 secs   av.it.:   9.0
      thresh= 1.078E-13 alpha_mix =  0.700 |ddv_scf|^2 =  1.720E-25

     End of self-consistent calculation

     Convergence has been achieved 


     Representation #  2 mode #   2

     Self-consistent Calculation

      iter #   1 total cpu time :    13.5 secs   av.it.:   6.5
      thresh= 1.000E-02 alpha_mix =  0.700 |ddv_scf|^2 =  1.183E-04

      iter #   2 total cpu time :    13.8 secs   av.it.:   9.0
      thresh= 1.088E-03 alpha_mix =  0.700 |ddv_scf|^2 =  1.577E-04

      iter #   3 total cpu time :    13.8 secs   av.it.:   8.0
      thresh= 1.256E-03 alpha_mix =  0.700 |ddv_scf|^2 =  5.988E-07

      iter #   4 total cpu time :    13.9 secs   av.it.:   8.5
      thresh= 7.738E-05 alpha_mix =  0.700 |ddv_scf|^2 =  4.763E-09

      iter #   5 total cpu time :    14.0 secs   av.it.:   8.5
      thresh= 6.901E-06 alpha_mix =  0.700 |ddv_scf|^2 =  4.054E-10

      iter #   6 total cpu time :    14.0 secs   av.it.:   8.8
      thresh= 2.013E-06 alpha_mix =  0.700 |ddv_scf|^2 =  5.171E-12

      iter #   7 total cpu time :    14.0 secs   av.it.:   8.5
      thresh= 2.274E-07 alpha_mix =  0.700 |ddv_scf|^2 =  1.906E-13

      iter #   8 total cpu time :    14.1 secs   av.it.:   8.5
      thresh= 4.366E-08 alpha_mix =  0.700 |ddv_scf|^2 =  6.349E-16

      iter #   9 total cpu time :    14.1 secs   av.it.:   8.8
      thresh= 2.520E-09 alpha_mix =  0.700 |ddv_scf|^2 =  1.798E-17

      iter #  10 total cpu time :    14.2 secs   av.it.:   8.8
      thresh= 4.241E-10 alpha_mix =  0.700 |ddv_scf|^2 =  1.886E-18

      iter #  11 total cpu time :    14.2 secs   av.it.:   8.8
      thresh= 1.373E-10 alpha_mix =  0.700 |ddv_scf|^2 =  5.551E-20

      iter #  12 total cpu time :    14.2 secs   av.it.:   8.2
      thresh= 2.356E-11 alpha_mix =  0.700 |ddv_scf|^2 =  9.309E-21

      iter #  13 total cpu time :    14.3 secs   av.it.:   8.5
      thresh= 9.648E-12 alpha_mix =  0.700 |ddv_scf|^2 =  6.778E-23

      iter #  14 total cpu time :    14.3 secs   av.it.:   8.8
      thresh= 8.233E-13 alpha_mix =  0.700 |ddv_scf|^2 =  1.171E-24

      iter #  15 total cpu time :    14.4 secs   av.it.:   9.0
      thresh= 1.082E-13 alpha_mix =  0.700 |ddv_scf|^2 =  2.270E-25

     End of self-consistent calculation

     Convergence has been achieved 


     Representation #  3 modes #   3  4

     Self-consistent Calculation

      iter #   1 total cpu time :    14.6 secs   av.it.:   6.1
      thresh= 1.000E-02 alpha_mix =  0.700 |ddv_scf|^2 =  5.480E-07

      iter #   2 total cpu time :    14.8 secs   av.it.:   9.5
      thresh= 7.403E-05 alpha_mix =  0.700 |ddv_scf|^2 =  2.505E-09

      iter #   3 total cpu time :    14.9 secs   av.it.:   9.4
      thresh= 5.005E-06 alpha_mix =  0.700 |ddv_scf|^2 =  3.761E-11

      iter #   4 total cpu time :    15.0 secs   av.it.:   9.4
      thresh= 6.132E-07 alpha_mix =  0.700 |ddv_scf|^2 =  1.111E-12

      iter #   5 total cpu time :    15.1 secs   av.it.:   9.2
      thresh= 1.054E-07 alpha_mix =  0.700 |ddv_scf|^2 =  6.697E-15

      iter #   6 total cpu time :    15.2 secs   av.it.:   9.6
      thresh= 8.184E-09 alpha_mix =  0.700 |ddv_scf|^2 =  7.841E-18

      iter #   7 total cpu time :    15.2 secs   av.it.:  10.0
      thresh= 2.800E-10 alpha_mix =  0.700 |ddv_scf|^2 =  4.206E-20

      iter #   8 total cpu time :    15.3 secs   av.it.:   9.8
      thresh= 2.051E-11 alpha_mix =  0.700 |ddv_scf|^2 =  1.542E-21

      iter #   9 total cpu time :    15.4 secs   av.it.:   9.6
      thresh= 3.927E-12 alpha_mix =  0.700 |ddv_scf|^2 =  5.608E-24

      iter #  10 total cpu time :    15.6 secs   av.it.:   9.6
      thresh= 2.368E-13 alpha_mix =  0.700 |ddv_scf|^2 =  4.770E-27

     End of self-consistent calculation

     Convergence has been achieved 


     Representation #  4 modes #   5  6

     Self-consistent Calculation

      iter #   1 total cpu time :    15.8 secs   av.it.:   6.1
      thresh= 1.000E-02 alpha_mix =  0.700 |ddv_scf|^2 =  5.482E-07

      iter #   2 total cpu time :    15.9 secs   av.it.:   9.2
      thresh= 7.404E-05 alpha_mix =  0.700 |ddv_scf|^2 =  2.517E-09

      iter #   3 total cpu time :    16.0 secs   av.it.:   9.2
      thresh= 5.017E-06 alpha_mix =  0.700 |ddv_scf|^2 =  3.764E-11

      iter #   4 total cpu time :    16.2 secs   av.it.:   9.4
      thresh= 6.135E-07 alpha_mix =  0.700 |ddv_scf|^2 =  1.110E-12

      iter #   5 total cpu time :    16.2 secs   av.it.:   9.1
      thresh= 1.053E-07 alpha_mix =  0.700 |ddv_scf|^2 =  6.749E-15

      iter #   6 total cpu time :    16.3 secs   av.it.:   9.6
      thresh= 8.215E-09 alpha_mix =  0.700 |ddv_scf|^2 =  7.905E-18

      iter #   7 total cpu time :    16.4 secs   av.it.:   9.9
      thresh= 2.812E-10 alpha_mix =  0.700 |ddv_scf|^2 =  4.252E-20

      iter #   8 total cpu time :    16.5 secs   av.it.:   9.9
      thresh= 2.062E-11 alpha_mix =  0.700 |ddv_scf|^2 =  1.552E-21

      iter #   9 total cpu time :    16.5 secs   av.it.:   9.5
      thresh= 3.940E-12 alpha_mix =  0.700 |ddv_scf|^2 =  5.613E-24

      iter #  10 total cpu time :    16.7 secs   av.it.:   9.6
      thresh= 2.369E-13 alpha_mix =  0.700 |ddv_scf|^2 =  8.292E-27

     End of self-consistent calculation

     Convergence has been achieved 
 
     Number of q in the star =    4
     List of q in the star:
          1   0.503943239  -0.503943239   0.503943239
          2  -0.503943239   0.503943239   0.503943239
          3   0.503943239   0.503943239  -0.503943239
          4  -0.503943239  -0.503943239  -0.503943239

     Diagonalizing the dynamical matrix

     q = (    0.503943239  -0.503943239   0.503943239 ) 

 **************************************************************************
     freq (    1) =     -13.846627 [THz] =    -461.873753 [cm-1]
     freq (    2) =     -13.846627 [THz] =    -461.873753 [cm-1]
     freq (    3) =      21.311363 [THz] =     710.870561 [cm-1]
     freq (    4) =      35.448426 [THz] =    1182.432230 [cm-1]
     freq (    5) =      36.499041 [THz] =    1217.476952 [cm-1]
     freq (    6) =      36.499041 [THz] =    1217.476952 [cm-1]
 **************************************************************************

     Mode symmetry, C_3v (3m)   point group:

     freq (  1 -  2) =       -461.9  [cm-1]   --> E    L_3           
     freq (  3 -  3) =        710.9  [cm-1]   --> A_1  L_1           
     freq (  4 -  4) =       1182.4  [cm-1]   --> A_1  L_1           
     freq (  5 -  6) =       1217.5  [cm-1]   --> E    L_3           

     Calculation of q =    0.0000000  -1.0078865   0.0000000

   Info: using nr1, nr2, nr3 values from input

   Info: using nr1, nr2, nr3 values from input
 
     Parallelization info
     --------------------
     sticks:   dense  smooth     PW     G-vecs:    dense   smooth      PW
     Min          14      14      5                  242      242      51
     Max          15      15      6                  248      248      54
     Sum         595     595    211                 9841     9841    2085
 


     bravais-lattice index     =            2
     lattice parameter (alat)  =       6.7034  a.u.
     unit-cell volume          =      73.5522 (a.u.)^3
     number of atoms/cell      =            2
     number of atomic types    =            1
     number of electrons       =         8.00
     number of Kohn-Sham states=            8
     kinetic-energy cutoff     =     100.0000  Ry
     charge density cutoff     =     400.0000  Ry
     Exchange-correlation      = PZ ( 1  1  0  0 0 0)

     celldm(1)=   6.703426  celldm(2)=   0.000000  celldm(3)=   0.000000
     celldm(4)=   0.000000  celldm(5)=   0.000000  celldm(6)=   0.000000

     crystal axes: (cart. coord. in units of alat)
               a(1) = (  -0.496088  -0.000000   0.496088 )  
               a(2) = (   0.000000   0.496088   0.496088 )  
               a(3) = (  -0.496088   0.496088  -0.000000 )  

     reciprocal axes: (cart. coord. in units 2 pi/alat)
               b(1) = ( -1.007886 -1.007886  1.007886 )  
               b(2) = (  1.007886  1.007886  1.007886 )  
               b(3) = ( -1.007886  1.007886 -1.007886 )  


     PseudoPot. # 1 for  C read from file:
     ../C.pz-mt.fhi.UPF
     MD5 check sum: b7c38bc33a0cf75f44be89b84470f298
     Pseudo is Norm-conserving, Zval =  4.0
     Generated using FHI98PP, converted with fhi2upf.x v.5.0.2
     Using radial grid of  461 points,  2 beta functions with: 
                l(1) =   0
                l(2) =   1

     atomic species   valence    mass     pseudopotential
        C              4.00    12.01100      C( 1.00)

     24 Sym. Ops. (no inversion) found



   Cartesian axes

     site n.     atom                  positions (alat units)
         1           C   tau(   1) = (  -0.0000000  -0.0000000  -0.0000000  )
         2           C   tau(   2) = (  -0.2480438   0.2480438   0.2480438  )

     number of k points=     8
                       cart. coord. in units 2pi/alat
        k(    1) = (   0.0000000   0.0000000   0.0000000), wk =   0.2500000
        k(    2) = (   0.0000000  -1.0078865   0.0000000), wk =   0.0000000
        k(    3) = (   0.5039432  -0.5039432   0.5039432), wk =   1.0000000
        k(    4) = (   0.5039432  -1.5118297   0.5039432), wk =   0.0000000
        k(    5) = (   0.0000000  -1.0078865   0.0000000), wk =   0.2500000
        k(    6) = (   0.0000000  -2.0157730   0.0000000), wk =   0.0000000
        k(    7) = (   0.0000000  -0.0000000  -1.0078865), wk =   0.5000000
        k(    8) = (   0.0000000  -1.0078865  -1.0078865), wk =   0.0000000

     Dense  grid:     9841 G-vectors     FFT dimensions: (  30,  30,  30)

     Estimated max dynamical RAM per process >       0.34MB

     Estimated total allocated dynamical RAM >      13.51MB

     The potential is recalculated from file :
     ./_ph0/c.q_3/c.save/charge-density.dat

     Starting wfc are   18 atomic wfcs

     Band Structure Calculation
     Davidson diagonalization with overlap

     ethr =  1.25E-10,  avg # of iterations =  7.8

     total cpu time spent up to now is        0.8 secs

     End of band structure calculation

          k = 0.0000 0.0000 0.0000 (  1243 PWs)   bands (ev):

    -8.0800  13.7227  13.7227  13.7227  19.3955  19.3955  19.3955  28.0350

          k = 0.0000-1.0079 0.0000 (  1234 PWs)   bands (ev):

     0.8971   0.8971   7.2216   7.2216  18.5886  18.5886  30.9401  30.9401

          k = 0.5039-0.5039 0.5039 (  1224 PWs)   bands (ev):

    -1.9931  -0.0131  10.8428  10.8428  22.3035  22.3035  23.2711  29.5251

          k = 0.5039-1.5118 0.5039 (  1224 PWs)   bands (ev):

    -1.9931  -0.0131  10.8428  10.8428  22.3035  22.3035  23.2711  29.5251

          k = 0.0000-1.0079 0.0000 (  1234 PWs)   bands (ev):

     0.8971   0.8971   7.2216   7.2216  18.5886  18.5886  30.9401  30.9401

          k = 0.0000-2.0158 0.0000 (  1243 PWs)   bands (ev):

    -8.0800  13.7227  13.7227  13.7227  19.3955  19.3955  19.3955  28.0350

          k = 0.0000-0.0000-1.0079 (  1234 PWs)   bands (ev):

     0.8971   0.8971   7.2216   7.2216  18.5886  18.5886  30.9401  30.9401

          k = 0.0000-1.0079-1.0079 (  1234 PWs)   bands (ev):

     0.8971   0.8971   7.2216   7.2216  18.5886  18.5886  30.9401  30.9401

     highest occupied, lowest unoccupied level (ev):    13.7227   18.5886

     Writing output data file c.save

                                                                                

     bravais-lattice index     =            2
     lattice parameter (alat)  =       6.7034  a.u.
     unit-cell volume          =      73.5522 (a.u.)^3
     number of atoms/cell      =            2
     number of atomic types    =            1
     kinetic-energy cut-off    =     100.0000  Ry
     charge density cut-off    =     400.0000  Ry
     convergence threshold     =      1.0E-24
     beta                      =       0.7000
     number of iterations used =            4
     Exchange-correlation      = PZ ( 1  1  0  0 0 0)


     celldm(1)=    6.70343  celldm(2)=    0.00000  celldm(3)=    0.00000
     celldm(4)=    0.00000  celldm(5)=    0.00000  celldm(6)=    0.00000

     crystal axes: (cart. coord. in units of alat)
               a(1) = ( -0.4961 -0.0000  0.4961 )  
               a(2) = (  0.0000  0.4961  0.4961 )  
               a(3) = ( -0.4961  0.4961 -0.0000 )  

     reciprocal axes: (cart. coord. in units 2 pi/alat)
               b(1) = ( -1.0079 -1.0079  1.0079 )  
               b(2) = (  1.0079  1.0079  1.0079 )  
               b(3) = ( -1.0079  1.0079 -1.0079 )  


     Atoms inside the unit cell: 

     Cartesian axes

     site n.  atom      mass           positions (alat units)
        1     C   12.0110   tau(    1) = (   -0.00000   -0.00000   -0.00000  )
        2     C   12.0110   tau(    2) = (   -0.24804    0.24804    0.24804  )

     Computing dynamical matrix for 
                    q = (   0.0000000  -1.0078865   0.0000000 )
 
      9 Sym.Ops. (with q -> -q+G )


     G cutoff =  455.2960  (    242 G-vectors)     FFT grid: ( 30, 30, 30)
     number of k points=     8

     PseudoPot. # 1 for  C read from file:
     ../C.pz-mt.fhi.UPF
     MD5 check sum: b7c38bc33a0cf75f44be89b84470f298
     Pseudo is Norm-conserving, Zval =  4.0
     Generated using FHI98PP, converted with fhi2upf.x v.5.0.2
     Using radial grid of  461 points,  2 beta functions with: 
                l(1) =   0
                l(2) =   1

     Mode symmetry, D_2d (-42m) point group:


     Atomic displacements:
     There are   4 irreducible representations

     Representation     1      1 modes -A_1  X_1  W_1  To be done

     Representation     2      1 modes -B_2  X_3  W_2  To be done

     Representation     3      2 modes -E    X_5  W_3  To be done

     Representation     4      2 modes -E    X_5  W_3  To be done



     Alpha used in Ewald sum =   2.8000
     PHONON       :    12.94s CPU        17.61s WALL



     Representation #  1 mode #   1

     Self-consistent Calculation

      iter #   1 total cpu time :    17.7 secs   av.it.:   6.5
      thresh= 1.000E-02 alpha_mix =  0.700 |ddv_scf|^2 =  5.058E-05

      iter #   2 total cpu time :    17.8 secs   av.it.:   8.2
      thresh= 7.112E-04 alpha_mix =  0.700 |ddv_scf|^2 =  3.377E-05

      iter #   3 total cpu time :    17.9 secs   av.it.:   7.8
      thresh= 5.811E-04 alpha_mix =  0.700 |ddv_scf|^2 =  1.034E-07

      iter #   4 total cpu time :    17.9 secs   av.it.:   8.0
      thresh= 3.216E-05 alpha_mix =  0.700 |ddv_scf|^2 =  6.261E-10

      iter #   5 total cpu time :    18.2 secs   av.it.:   8.2
      thresh= 2.502E-06 alpha_mix =  0.700 |ddv_scf|^2 =  2.305E-12

      iter #   6 total cpu time :    18.3 secs   av.it.:   8.0
      thresh= 1.518E-07 alpha_mix =  0.700 |ddv_scf|^2 =  9.017E-14

      iter #   7 total cpu time :    18.5 secs   av.it.:   8.5
      thresh= 3.003E-08 alpha_mix =  0.700 |ddv_scf|^2 =  1.647E-16

      iter #   8 total cpu time :    18.7 secs   av.it.:   8.0
      thresh= 1.283E-09 alpha_mix =  0.700 |ddv_scf|^2 =  2.841E-19

      iter #   9 total cpu time :    19.1 secs   av.it.:   8.2
      thresh= 5.330E-11 alpha_mix =  0.700 |ddv_scf|^2 =  1.519E-21

      iter #  10 total cpu time :    19.2 secs   av.it.:   8.2
      thresh= 3.898E-12 alpha_mix =  0.700 |ddv_scf|^2 =  3.282E-23

      iter #  11 total cpu time :    19.7 secs   av.it.:   8.2
      thresh= 5.729E-13 alpha_mix =  0.700 |ddv_scf|^2 =  5.162E-26

     End of self-consistent calculation

     Convergence has been achieved 


     Representation #  2 mode #   2

     Self-consistent Calculation

      iter #   1 total cpu time :    20.2 secs   av.it.:   6.5
      thresh= 1.000E-02 alpha_mix =  0.700 |ddv_scf|^2 =  5.057E-05

      iter #   2 total cpu time :    20.4 secs   av.it.:   8.2
      thresh= 7.111E-04 alpha_mix =  0.700 |ddv_scf|^2 =  3.375E-05

      iter #   3 total cpu time :    20.5 secs   av.it.:   8.0
      thresh= 5.809E-04 alpha_mix =  0.700 |ddv_scf|^2 =  1.037E-07

      iter #   4 total cpu time :    20.6 secs   av.it.:   8.0
      thresh= 3.220E-05 alpha_mix =  0.700 |ddv_scf|^2 =  6.325E-10

      iter #   5 total cpu time :    20.7 secs   av.it.:   8.2
      thresh= 2.515E-06 alpha_mix =  0.700 |ddv_scf|^2 =  2.291E-12

      iter #   6 total cpu time :    20.7 secs   av.it.:   8.0
      thresh= 1.514E-07 alpha_mix =  0.700 |ddv_scf|^2 =  8.963E-14

      iter #   7 total cpu time :    20.7 secs   av.it.:   8.5
      thresh= 2.994E-08 alpha_mix =  0.700 |ddv_scf|^2 =  1.640E-16

      iter #   8 total cpu time :    20.8 secs   av.it.:   8.0
      thresh= 1.281E-09 alpha_mix =  0.700 |ddv_scf|^2 =  5.119E-19

      iter #   9 total cpu time :    20.8 secs   av.it.:   8.0
      thresh= 7.155E-11 alpha_mix =  0.700 |ddv_scf|^2 =  1.950E-21

      iter #  10 total cpu time :    20.9 secs   av.it.:   8.2
      thresh= 4.416E-12 alpha_mix =  0.700 |ddv_scf|^2 =  1.040E-22

      iter #  11 total cpu time :    21.0 secs   av.it.:   7.8
      thresh= 1.020E-12 alpha_mix =  0.700 |ddv_scf|^2 =  5.407E-25

     End of self-consistent calculation

     Convergence has been achieved 


     Representation #  3 modes #   3  4

     Self-consistent Calculation

      iter #   1 total cpu time :    21.2 secs   av.it.:   6.1
      thresh= 1.000E-02 alpha_mix =  0.700 |ddv_scf|^2 =  1.397E-06

      iter #   2 total cpu time :    21.3 secs   av.it.:   9.0
      thresh= 1.182E-04 alpha_mix =  0.700 |ddv_scf|^2 =  6.960E-08

      iter #   3 total cpu time :    21.4 secs   av.it.:   8.4
      thresh= 2.638E-05 alpha_mix =  0.700 |ddv_scf|^2 =  6.986E-11

      iter #   4 total cpu time :    21.5 secs   av.it.:   9.1
      thresh= 8.358E-07 alpha_mix =  0.700 |ddv_scf|^2 =  1.378E-12

      iter #   5 total cpu time :    21.6 secs   av.it.:   8.8
      thresh= 1.174E-07 alpha_mix =  0.700 |ddv_scf|^2 =  2.186E-15

      iter #   6 total cpu time :    21.7 secs   av.it.:   9.0
      thresh= 4.675E-09 alpha_mix =  0.700 |ddv_scf|^2 =  3.886E-17

      iter #   7 total cpu time :    21.8 secs   av.it.:   9.6
      thresh= 6.234E-10 alpha_mix =  0.700 |ddv_scf|^2 =  2.119E-19

      iter #   8 total cpu time :    21.8 secs   av.it.:   9.2
      thresh= 4.603E-11 alpha_mix =  0.700 |ddv_scf|^2 =  7.511E-21

      iter #   9 total cpu time :    21.9 secs   av.it.:   9.4
      thresh= 8.667E-12 alpha_mix =  0.700 |ddv_scf|^2 =  4.504E-23

      iter #  10 total cpu time :    22.3 secs   av.it.:   9.1
      thresh= 6.711E-13 alpha_mix =  0.700 |ddv_scf|^2 =  2.131E-24

      iter #  11 total cpu time :    22.6 secs   av.it.:   9.4
      thresh= 1.460E-13 alpha_mix =  0.700 |ddv_scf|^2 =  1.451E-26

     End of self-consistent calculation

     Convergence has been achieved 


     Representation #  4 modes #   5  6

     Self-consistent Calculation

      iter #   1 total cpu time :    23.9 secs   av.it.:   6.2
      thresh= 1.000E-02 alpha_mix =  0.700 |ddv_scf|^2 =  1.396E-06

      iter #   2 total cpu time :    24.8 secs   av.it.:   9.0
      thresh= 1.182E-04 alpha_mix =  0.700 |ddv_scf|^2 =  6.950E-08

      iter #   3 total cpu time :    25.7 secs   av.it.:   8.6
      thresh= 2.636E-05 alpha_mix =  0.700 |ddv_scf|^2 =  7.035E-11

      iter #   4 total cpu time :    25.9 secs   av.it.:   9.5
      thresh= 8.387E-07 alpha_mix =  0.700 |ddv_scf|^2 =  1.365E-12

      iter #   5 total cpu time :    26.0 secs   av.it.:   9.0
      thresh= 1.168E-07 alpha_mix =  0.700 |ddv_scf|^2 =  2.111E-15

      iter #   6 total cpu time :    26.1 secs   av.it.:   9.5
      thresh= 4.594E-09 alpha_mix =  0.700 |ddv_scf|^2 =  4.137E-17

      iter #   7 total cpu time :    26.2 secs   av.it.:   9.6
      thresh= 6.432E-10 alpha_mix =  0.700 |ddv_scf|^2 =  2.126E-19

      iter #   8 total cpu time :    26.2 secs   av.it.:   9.5
      thresh= 4.611E-11 alpha_mix =  0.700 |ddv_scf|^2 =  8.343E-21

      iter #   9 total cpu time :    26.3 secs   av.it.:   9.5
      thresh= 9.134E-12 alpha_mix =  0.700 |ddv_scf|^2 =  2.366E-23

      iter #  10 total cpu time :    26.4 secs   av.it.:   9.5
      thresh= 4.864E-13 alpha_mix =  0.700 |ddv_scf|^2 =  1.761E-24

      iter #  11 total cpu time :    26.6 secs   av.it.:   9.5
      thresh= 1.327E-13 alpha_mix =  0.700 |ddv_scf|^2 =  1.437E-26

     End of self-consistent calculation

     Convergence has been achieved 
 
     Number of q in the star =    3
     List of q in the star:
          1   0.000000000  -1.007886479   0.000000000
          2   0.000000000  -0.000000000  -1.007886479
          3  -1.007886479   0.000000000   0.000000000

     Diagonalizing the dynamical matrix

     q = (    0.000000000  -1.007886479   0.000000000 ) 

 **************************************************************************
     freq (    1) =       6.209714 [THz] =     207.133749 [cm-1]
     freq (    2) =       6.209714 [THz] =     207.133749 [cm-1]
     freq (    3) =      27.513991 [THz] =     917.767960 [cm-1]
     freq (    4) =      27.513991 [THz] =     917.767960 [cm-1]
     freq (    5) =      31.148355 [THz] =    1038.997283 [cm-1]
     freq (    6) =      31.149264 [THz] =    1039.027615 [cm-1]
 **************************************************************************

     Mode symmetry, D_2d (-42m) point group:

     freq (  1 -  2) =        207.1  [cm-1]   --> E    X_5  W_3      
     freq (  3 -  4) =        917.8  [cm-1]   --> E    X_5  W_3      
     freq (  5 -  5) =       1039.0  [cm-1]   --> A_1  X_1  W_1      
     freq (  6 -  6) =       1039.0  [cm-1]   --> B_2  X_3  W_2      
 
     init_run     :      0.02s CPU      0.03s WALL (       2 calls)
     electrons    :      0.26s CPU      0.52s WALL (       2 calls)

     Called by init_run:
     wfcinit      :      0.00s CPU      0.00s WALL (       2 calls)
     potinit      :      0.00s CPU      0.01s WALL (       2 calls)

     Called by electrons:
     c_bands      :      0.26s CPU      0.52s WALL (       2 calls)
     v_of_rho     :      0.00s CPU      0.00s WALL (       3 calls)

     Called by c_bands:
     init_us_2    :      0.01s CPU      0.01s WALL (     545 calls)
     cegterg      :      0.16s CPU      0.17s WALL (      16 calls)

     Called by sum_band:

     Called by *egterg:
     h_psi        :      5.52s CPU      5.81s WALL (    8345 calls)
     g_psi        :      0.00s CPU      0.00s WALL (     126 calls)
     cdiaghg      :      0.03s CPU      0.25s WALL (     142 calls)

     Called by h_psi:
     h_psi:pot    :      5.51s CPU      5.79s WALL (    8345 calls)
     h_psi:calbec :      0.32s CPU      0.34s WALL (    8345 calls)
     vloc_psi     :      5.09s CPU      5.35s WALL (    8345 calls)
     add_vuspsi   :      0.06s CPU      0.06s WALL (    8345 calls)

     General routines
     calbec       :      0.63s CPU      0.67s WALL (   16915 calls)
     fft          :      0.14s CPU      0.15s WALL (     672 calls)
     ffts         :      0.02s CPU      0.02s WALL (     144 calls)
     fftw         :     10.67s CPU     11.03s WALL (   75802 calls)
     davcio       :      0.11s CPU      1.29s WALL (    4543 calls)
 
     Parallel routines
     fft_scatter  :      9.96s CPU     10.27s WALL (   76618 calls)
 
     PHONON       :    20.31s CPU        26.95s WALL

     INITIALIZATION: 
     phq_setup    :      0.01s CPU      0.02s WALL (       3 calls)
     phq_init     :      0.01s CPU      0.02s WALL (       3 calls)
 
     phq_init     :      0.01s CPU      0.02s WALL (       3 calls)
     init_vloc    :      0.00s CPU      0.00s WALL (       3 calls)
     init_us_1    :      0.00s CPU      0.00s WALL (       3 calls)
 
     DYNAMICAL MATRIX:
     dynmat0      :      0.01s CPU      0.01s WALL (       3 calls)
     phqscf       :     16.33s CPU     19.91s WALL (       3 calls)
     dynmatrix    :      0.01s CPU      0.02s WALL (       3 calls)
 
     phqscf       :     16.33s CPU     19.91s WALL (       3 calls)
     solve_linter :     16.23s CPU     19.77s WALL (      10 calls)
     drhodv       :      0.08s CPU      0.09s WALL (      10 calls)
 
     dynmat0      :      0.01s CPU      0.01s WALL (       3 calls)
     dynmat_us    :      0.00s CPU      0.00s WALL (       3 calls)
     d2ionq       :      0.00s CPU      0.00s WALL (       3 calls)
 
     dynmat_us    :      0.00s CPU      0.00s WALL (       3 calls)
 
     phqscf       :     16.33s CPU     19.91s WALL (       3 calls)
     solve_linter :     16.23s CPU     19.77s WALL (      10 calls)
 
     solve_linter :     16.23s CPU     19.77s WALL (      10 calls)
     dvqpsi_us    :      0.10s CPU      0.10s WALL (      84 calls)
     ortho        :      1.56s CPU      1.58s WALL (     805 calls)
     cgsolve      :      6.47s CPU      6.81s WALL (     805 calls)
     incdrhoscf   :      2.90s CPU      2.95s WALL (     796 calls)
     vpsifft      :      2.34s CPU      2.39s WALL (     658 calls)
     dv_of_drho   :      0.14s CPU      0.15s WALL (     220 calls)
     mix_pot      :      1.60s CPU      4.02s WALL (     122 calls)
     psymdvscf    :      1.97s CPU      2.01s WALL (     114 calls)
 
     dvqpsi_us    :      0.10s CPU      0.10s WALL (      84 calls)
     dvqpsi_us_on :      0.00s CPU      0.00s WALL (      84 calls)
 
     cgsolve      :      6.47s CPU      6.81s WALL (     805 calls)
     ch_psi       :      5.99s CPU      6.30s WALL (    8187 calls)
 
     ch_psi       :      5.99s CPU      6.30s WALL (    8187 calls)
     h_psi        :      5.52s CPU      5.81s WALL (    8345 calls)
     last         :      0.56s CPU      0.59s WALL (    8187 calls)
 
     h_psi        :      5.52s CPU      5.81s WALL (    8345 calls)
     add_vuspsi   :      0.06s CPU      0.06s WALL (    8345 calls)
 
     incdrhoscf   :      2.90s CPU      2.95s WALL (     796 calls)
 
 
      General routines
     calbec       :      0.63s CPU      0.67s WALL (   16915 calls)
     fft          :      0.14s CPU      0.15s WALL (     672 calls)
     ffts         :      0.02s CPU      0.02s WALL (     144 calls)
     fftw         :     10.67s CPU     11.03s WALL (   75802 calls)
     davcio       :      0.11s CPU      1.29s WALL (    4543 calls)
     write_rec    :      0.46s CPU      0.90s WALL (     132 calls)
 
 
     PHONON       :    20.31s CPU        26.95s WALL

 
   This run was terminated on:  10:46:39   8Dec2020            

=------------------------------------------------------------------------------=
   JOB DONE.
=------------------------------------------------------------------------------=
