[Molden Format]
[FREQ]
    0.00
    0.00
    0.00
 1325.53
 1325.53
 1325.53
[FR-COORD]
   C           0.00000        0.00000        0.00000
   C          -1.67586        1.67586        1.67586
[FR-NORM-COORD]
 vibration     1
   0.00000  -0.70711   0.00000
   0.00000  -0.70711   0.00000
 vibration     2
  -0.70711   0.00000   0.00000
  -0.70711   0.00000   0.00000
 vibration     3
   0.00000   0.00000  -0.70711
   0.00000   0.00000  -0.70711
 vibration     4
   0.00000   0.70711   0.00000
   0.00000  -0.70711   0.00000
 vibration     5
   0.00000   0.00000  -0.70711
   0.00000   0.00000   0.70711
 vibration     6
  -0.70711   0.00000   0.00000
   0.70711   0.00000   0.00000
