
     Program PWSCF v.6.1 (svn rev. 13369) starts on 20Jan2021 at  9:34:36 

     This program is part of the open-source Quantum ESPRESSO suite
     for quantum simulation of materials; please cite
         "P. Giannozzi et al., J. Phys.:Condens. Matter 21 395502 (2009);
          URL http://www.quantum-espresso.org", 
     in publications or presentations arising from this work. More details at
     http://www.quantum-espresso.org/quote

     Parallel version (MPI & OpenMP), running on      80 processor cores
     Number of MPI processes:                80
     Threads/MPI process:                     1
     R & G space division:  proc/nbgrp/npool/nimage =      80
     Waiting for input...
     Reading input from standard input

     Current dimensions of program PWSCF are:
     Max number of different atomic species (ntypx) = 10
     Max number of k-points (npk) =  40000
     Max angular momentum in pseudopotentials (lmaxx) =  3

     Atomic positions and unit cell read from directory:
     ./c.save/
 

     IMPORTANT: XC functional enforced from input :
     Exchange-correlation      = PZ ( 1  1  0  0 0 0)
     Any further DFT definition will be discarded
     Please, verify this is what you really want

               file C.pz-mt.fhi.UPF: wavefunction(s)  3d renormalized

     Subspace diagonalization in iterative solution of the eigenvalue problem:
     one sub-group per band group will be used
     scalapack distributed-memory algorithm (size of sub-group:  6*  6 procs)

 
     Parallelization info
     --------------------
     sticks:   dense  smooth     PW     G-vecs:    dense   smooth      PW
     Min           6       6      2                   90       90      15
     Max           7       7      3                   94       94      18
     Sum         499     499    163                 7391     7391    1363
 


     bravais-lattice index     =            2
     lattice parameter (alat)  =       6.7034  a.u.
     unit-cell volume          =      75.3061 (a.u.)^3
     number of atoms/cell      =            2
     number of atomic types    =            1
     number of electrons       =         8.00
     number of Kohn-Sham states=            8
     kinetic-energy cutoff     =      80.0000  Ry
     charge density cutoff     =     320.0000  Ry
     Exchange-correlation      = PZ ( 1  1  0  0 0 0)

     celldm(1)=   6.703426  celldm(2)=   0.000000  celldm(3)=   0.000000
     celldm(4)=   0.000000  celldm(5)=   0.000000  celldm(6)=   0.000000

     crystal axes: (cart. coord. in units of alat)
               a(1) = (  -0.500000   0.000000   0.500000 )  
               a(2) = (   0.000000   0.500000   0.500000 )  
               a(3) = (  -0.500000   0.500000   0.000000 )  

     reciprocal axes: (cart. coord. in units 2 pi/alat)
               b(1) = ( -1.000000 -1.000000  1.000000 )  
               b(2) = (  1.000000  1.000000  1.000000 )  
               b(3) = ( -1.000000  1.000000 -1.000000 )  


     PseudoPot. # 1 for  C read from file:
     ../C.pz-mt.fhi.UPF
     MD5 check sum: b7c38bc33a0cf75f44be89b84470f298
     Pseudo is Norm-conserving, Zval =  4.0
     Generated using FHI98PP, converted with fhi2upf.x v.5.0.2
     Using radial grid of  461 points,  2 beta functions with: 
                l(1) =   0
                l(2) =   1

     atomic species   valence    mass     pseudopotential
        C              4.00    12.01100      C( 1.00)

     No symmetry found



   Cartesian axes

     site n.     atom                  positions (alat units)
         1           C   tau(   1) = (   0.0000000   0.0000000   0.0000000  )
         2           C   tau(   2) = (  -0.2500000   0.2500000   0.2500000  )

     number of k points=    64
                       cart. coord. in units 2pi/alat
        k(    1) = (   0.0000000   0.0000000   0.0000000), wk =   0.0312500
        k(    2) = (  -0.2500000   0.2500000  -0.2500000), wk =   0.0312500
        k(    3) = (   0.5000000  -0.5000000   0.5000000), wk =   0.0312500
        k(    4) = (   0.2500000  -0.2500000   0.2500000), wk =   0.0312500
        k(    5) = (   0.2500000   0.2500000   0.2500000), wk =   0.0312500
        k(    6) = (   0.0000000   0.5000000   0.0000000), wk =   0.0312500
        k(    7) = (   0.7500000  -0.2500000   0.7500000), wk =   0.0312500
        k(    8) = (   0.5000000   0.0000000   0.5000000), wk =   0.0312500
        k(    9) = (  -0.5000000  -0.5000000  -0.5000000), wk =   0.0312500
        k(   10) = (  -0.7500000  -0.2500000  -0.7500000), wk =   0.0312500
        k(   11) = (   0.0000000  -1.0000000   0.0000000), wk =   0.0312500
        k(   12) = (  -0.2500000  -0.7500000  -0.2500000), wk =   0.0312500
        k(   13) = (  -0.2500000  -0.2500000  -0.2500000), wk =   0.0312500
        k(   14) = (  -0.5000000   0.0000000  -0.5000000), wk =   0.0312500
        k(   15) = (   0.2500000  -0.7500000   0.2500000), wk =   0.0312500
        k(   16) = (   0.0000000  -0.5000000   0.0000000), wk =   0.0312500
        k(   17) = (  -0.2500000  -0.2500000   0.2500000), wk =   0.0312500
        k(   18) = (  -0.5000000   0.0000000   0.0000000), wk =   0.0312500
        k(   19) = (   0.2500000  -0.7500000   0.7500000), wk =   0.0312500
        k(   20) = (   0.0000000  -0.5000000   0.5000000), wk =   0.0312500
        k(   21) = (   0.0000000   0.0000000   0.5000000), wk =   0.0312500
        k(   22) = (  -0.2500000   0.2500000   0.2500000), wk =   0.0312500
        k(   23) = (   0.5000000  -0.5000000   1.0000000), wk =   0.0312500
        k(   24) = (   0.2500000  -0.2500000   0.7500000), wk =   0.0312500
        k(   25) = (  -0.7500000  -0.7500000  -0.2500000), wk =   0.0312500
        k(   26) = (  -1.0000000  -0.5000000  -0.5000000), wk =   0.0312500
        k(   27) = (  -0.2500000  -1.2500000   0.2500000), wk =   0.0312500
        k(   28) = (  -0.5000000  -1.0000000   0.0000000), wk =   0.0312500
        k(   29) = (  -0.5000000  -0.5000000   0.0000000), wk =   0.0312500
        k(   30) = (  -0.7500000  -0.2500000  -0.2500000), wk =   0.0312500
        k(   31) = (   0.0000000  -1.0000000   0.5000000), wk =   0.0312500
        k(   32) = (  -0.2500000  -0.7500000   0.2500000), wk =   0.0312500
        k(   33) = (   0.5000000   0.5000000  -0.5000000), wk =   0.0312500
        k(   34) = (   0.2500000   0.7500000  -0.7500000), wk =   0.0312500
        k(   35) = (   1.0000000   0.0000000   0.0000000), wk =   0.0312500
        k(   36) = (   0.7500000   0.2500000  -0.2500000), wk =   0.0312500
        k(   37) = (   0.7500000   0.7500000  -0.2500000), wk =   0.0312500
        k(   38) = (   0.5000000   1.0000000  -0.5000000), wk =   0.0312500
        k(   39) = (   1.2500000   0.2500000   0.2500000), wk =   0.0312500
        k(   40) = (   1.0000000   0.5000000   0.0000000), wk =   0.0312500
        k(   41) = (   0.0000000   0.0000000  -1.0000000), wk =   0.0312500
        k(   42) = (  -0.2500000   0.2500000  -1.2500000), wk =   0.0312500
        k(   43) = (   0.5000000  -0.5000000  -0.5000000), wk =   0.0312500
        k(   44) = (   0.2500000  -0.2500000  -0.7500000), wk =   0.0312500
        k(   45) = (   0.2500000   0.2500000  -0.7500000), wk =   0.0312500
        k(   46) = (   0.0000000   0.5000000  -1.0000000), wk =   0.0312500
        k(   47) = (   0.7500000  -0.2500000  -0.2500000), wk =   0.0312500
        k(   48) = (   0.5000000   0.0000000  -0.5000000), wk =   0.0312500
        k(   49) = (   0.2500000   0.2500000  -0.2500000), wk =   0.0312500
        k(   50) = (   0.0000000   0.5000000  -0.5000000), wk =   0.0312500
        k(   51) = (   0.7500000  -0.2500000   0.2500000), wk =   0.0312500
        k(   52) = (   0.5000000   0.0000000   0.0000000), wk =   0.0312500
        k(   53) = (   0.5000000   0.5000000   0.0000000), wk =   0.0312500
        k(   54) = (   0.2500000   0.7500000  -0.2500000), wk =   0.0312500
        k(   55) = (   1.0000000   0.0000000   0.5000000), wk =   0.0312500
        k(   56) = (   0.7500000   0.2500000   0.2500000), wk =   0.0312500
        k(   57) = (  -0.2500000  -0.2500000  -0.7500000), wk =   0.0312500
        k(   58) = (  -0.5000000   0.0000000  -1.0000000), wk =   0.0312500
        k(   59) = (   0.2500000  -0.7500000  -0.2500000), wk =   0.0312500
        k(   60) = (   0.0000000  -0.5000000  -0.5000000), wk =   0.0312500
        k(   61) = (   0.0000000   0.0000000  -0.5000000), wk =   0.0312500
        k(   62) = (  -0.2500000   0.2500000  -0.7500000), wk =   0.0312500
        k(   63) = (   0.5000000  -0.5000000   0.0000000), wk =   0.0312500
        k(   64) = (   0.2500000  -0.2500000  -0.2500000), wk =   0.0312500

     Dense  grid:     7391 G-vectors     FFT dimensions: (  27,  27,  27)

     Estimated max dynamical RAM per process >       0.25MB

     Estimated total allocated dynamical RAM >      20.30MB

     The potential is recalculated from file :
     ./c.save/charge-density.dat

     Starting wfc are   18 randomized atomic wfcs

     Band Structure Calculation
     Davidson diagonalization with overlap

     ethr =  1.25E-12,  avg # of iterations = 11.3

     total cpu time spent up to now is        7.8 secs

     End of band structure calculation

          k = 0.0000 0.0000 0.0000 (   941 PWs)   bands (ev):

    -8.1914  13.2956  13.2956  13.2956  18.9011  18.9011  18.9011  27.0685

          k =-0.2500 0.2500-0.2500 (   911 PWs)   bands (ev):

    -6.4509   6.7288  11.5371  11.5371  21.1102  21.1102  21.6413  28.0744

          k = 0.5000-0.5000 0.5000 (   912 PWs)   bands (ev):

    -2.2438  -0.1777  10.4768  10.4768  21.7742  21.7742  22.5143  28.8818

          k = 0.2500-0.2500 0.2500 (   911 PWs)   bands (ev):

    -6.4509   6.7288  11.5371  11.5371  21.1102  21.1102  21.6413  28.0744

          k = 0.2500 0.2500 0.2500 (   911 PWs)   bands (ev):

    -6.4509   6.7288  11.5371  11.5371  21.1102  21.1102  21.6413  28.0744

          k = 0.0000 0.5000 0.0000 (   902 PWs)   bands (ev):

    -5.8746   8.9100   9.1342   9.1342  17.7932  23.6240  24.9240  24.9240

          k = 0.7500-0.2500 0.7500 (   908 PWs)   bands (ev):

    -2.0667   2.5423   6.5561   8.3747  19.4172  24.7633  26.1506  26.7683

          k = 0.5000 0.0000 0.5000 (   907 PWs)   bands (ev):

    -3.6534   4.6802   5.6325  10.2605  21.2872  23.3428  25.7299  27.3667

          k =-0.5000-0.5000-0.5000 (   912 PWs)   bands (ev):

    -2.2438  -0.1777  10.4768  10.4768  21.7742  21.7742  22.5143  28.8818

          k =-0.7500-0.2500-0.7500 (   908 PWs)   bands (ev):

    -2.0667   2.5423   6.5561   8.3747  19.4172  24.7633  26.1506  26.7683

          k = 0.0000-1.0000 0.0000 (   934 PWs)   bands (ev):

     0.6357   0.6357   6.9374   6.9374  18.1025  18.1025  30.1520  30.1520

          k =-0.2500-0.7500-0.2500 (   908 PWs)   bands (ev):

    -2.0667   2.5423   6.5561   8.3747  19.4172  24.7633  26.1506  26.7683

          k =-0.2500-0.2500-0.2500 (   911 PWs)   bands (ev):

    -6.4509   6.7288  11.5371  11.5371  21.1102  21.1102  21.6413  28.0744

          k =-0.5000 0.0000-0.5000 (   907 PWs)   bands (ev):

    -3.6534   4.6802   5.6325  10.2605  21.2872  23.3428  25.7299  27.3667

          k = 0.2500-0.7500 0.2500 (   908 PWs)   bands (ev):

    -2.0667   2.5423   6.5561   8.3747  19.4172  24.7633  26.1506  26.7683

          k = 0.0000-0.5000 0.0000 (   902 PWs)   bands (ev):

    -5.8746   8.9100   9.1342   9.1342  17.7932  23.6240  24.9240  24.9240

          k =-0.2500-0.2500 0.2500 (   911 PWs)   bands (ev):

    -6.4509   6.7288  11.5371  11.5371  21.1102  21.1102  21.6413  28.0744

          k =-0.5000 0.0000 0.0000 (   902 PWs)   bands (ev):

    -5.8746   8.9100   9.1342   9.1342  17.7932  23.6240  24.9240  24.9240

          k = 0.2500-0.7500 0.7500 (   908 PWs)   bands (ev):

    -2.0667   2.5423   6.5561   8.3747  19.4172  24.7633  26.1506  26.7683

          k = 0.0000-0.5000 0.5000 (   907 PWs)   bands (ev):

    -3.6534   4.6802   5.6325  10.2605  21.2872  23.3428  25.7299  27.3667

          k = 0.0000 0.0000 0.5000 (   902 PWs)   bands (ev):

    -5.8746   8.9100   9.1342   9.1342  17.7932  23.6240  24.9240  24.9240

          k =-0.2500 0.2500 0.2500 (   911 PWs)   bands (ev):

    -6.4509   6.7288  11.5371  11.5371  21.1102  21.1102  21.6413  28.0744

          k = 0.5000-0.5000 1.0000 (   907 PWs)   bands (ev):

    -3.6534   4.6802   5.6325  10.2605  21.2872  23.3428  25.7299  27.3667

          k = 0.2500-0.2500 0.7500 (   908 PWs)   bands (ev):

    -2.0667   2.5423   6.5561   8.3747  19.4172  24.7633  26.1506  26.7683

          k =-0.7500-0.7500-0.2500 (   908 PWs)   bands (ev):

    -2.0667   2.5423   6.5561   8.3747  19.4172  24.7633  26.1506  26.7683

          k =-1.0000-0.5000-0.5000 (   907 PWs)   bands (ev):

    -3.6534   4.6802   5.6325  10.2605  21.2872  23.3428  25.7299  27.3667

          k =-0.2500-1.2500 0.2500 (   908 PWs)   bands (ev):

    -2.0667   2.5423   6.5561   8.3747  19.4172  24.7633  26.1506  26.7683

          k =-0.5000-1.0000 0.0000 (   892 PWs)   bands (ev):

     1.4949   1.4949   4.8450   4.8450  23.8530  23.8530  25.8067  25.8067

          k =-0.5000-0.5000 0.0000 (   907 PWs)   bands (ev):

    -3.6534   4.6802   5.6325  10.2605  21.2872  23.3428  25.7299  27.3667

          k =-0.7500-0.2500-0.2500 (   908 PWs)   bands (ev):

    -2.0667   2.5423   6.5561   8.3747  19.4172  24.7633  26.1506  26.7683

          k = 0.0000-1.0000 0.5000 (   892 PWs)   bands (ev):

     1.4949   1.4949   4.8450   4.8450  23.8530  23.8530  25.8067  25.8067

          k =-0.2500-0.7500 0.2500 (   908 PWs)   bands (ev):

    -2.0667   2.5423   6.5561   8.3747  19.4172  24.7633  26.1506  26.7683

          k = 0.5000 0.5000-0.5000 (   912 PWs)   bands (ev):

    -2.2438  -0.1777  10.4768  10.4768  21.7742  21.7742  22.5143  28.8818

          k = 0.2500 0.7500-0.7500 (   908 PWs)   bands (ev):

    -2.0667   2.5423   6.5561   8.3747  19.4172  24.7633  26.1506  26.7683

          k = 1.0000 0.0000 0.0000 (   934 PWs)   bands (ev):

     0.6357   0.6357   6.9374   6.9374  18.1025  18.1025  30.1520  30.1520

          k = 0.7500 0.2500-0.2500 (   908 PWs)   bands (ev):

    -2.0667   2.5423   6.5561   8.3747  19.4172  24.7633  26.1506  26.7683

          k = 0.7500 0.7500-0.2500 (   908 PWs)   bands (ev):

    -2.0667   2.5423   6.5561   8.3747  19.4172  24.7633  26.1506  26.7683

          k = 0.5000 1.0000-0.5000 (   907 PWs)   bands (ev):

    -3.6534   4.6802   5.6325  10.2605  21.2872  23.3428  25.7299  27.3667

          k = 1.2500 0.2500 0.2500 (   908 PWs)   bands (ev):

    -2.0667   2.5423   6.5561   8.3747  19.4172  24.7633  26.1506  26.7683

          k = 1.0000 0.5000 0.0000 (   892 PWs)   bands (ev):

     1.4949   1.4949   4.8450   4.8450  23.8530  23.8530  25.8067  25.8067

          k = 0.0000 0.0000-1.0000 (   934 PWs)   bands (ev):

     0.6357   0.6357   6.9374   6.9374  18.1025  18.1025  30.1520  30.1520

          k =-0.2500 0.2500-1.2500 (   908 PWs)   bands (ev):

    -2.0667   2.5423   6.5561   8.3747  19.4172  24.7633  26.1506  26.7683

          k = 0.5000-0.5000-0.5000 (   912 PWs)   bands (ev):

    -2.2438  -0.1777  10.4768  10.4768  21.7742  21.7742  22.5143  28.8818

          k = 0.2500-0.2500-0.7500 (   908 PWs)   bands (ev):

    -2.0667   2.5423   6.5561   8.3747  19.4172  24.7633  26.1506  26.7683

          k = 0.2500 0.2500-0.7500 (   908 PWs)   bands (ev):

    -2.0667   2.5423   6.5561   8.3747  19.4172  24.7633  26.1506  26.7683

          k = 0.0000 0.5000-1.0000 (   892 PWs)   bands (ev):

     1.4949   1.4949   4.8450   4.8450  23.8530  23.8530  25.8067  25.8067

          k = 0.7500-0.2500-0.2500 (   908 PWs)   bands (ev):

    -2.0667   2.5423   6.5561   8.3747  19.4172  24.7633  26.1506  26.7683

          k = 0.5000 0.0000-0.5000 (   907 PWs)   bands (ev):

    -3.6534   4.6802   5.6325  10.2605  21.2872  23.3428  25.7299  27.3667

          k = 0.2500 0.2500-0.2500 (   911 PWs)   bands (ev):

    -6.4509   6.7288  11.5371  11.5371  21.1102  21.1102  21.6413  28.0744

          k = 0.0000 0.5000-0.5000 (   907 PWs)   bands (ev):

    -3.6534   4.6802   5.6325  10.2605  21.2872  23.3428  25.7299  27.3667

          k = 0.7500-0.2500 0.2500 (   908 PWs)   bands (ev):

    -2.0667   2.5423   6.5561   8.3747  19.4172  24.7633  26.1506  26.7683

          k = 0.5000 0.0000 0.0000 (   902 PWs)   bands (ev):

    -5.8746   8.9100   9.1342   9.1342  17.7932  23.6240  24.9240  24.9240

          k = 0.5000 0.5000 0.0000 (   907 PWs)   bands (ev):

    -3.6534   4.6802   5.6325  10.2605  21.2872  23.3428  25.7299  27.3667

          k = 0.2500 0.7500-0.2500 (   908 PWs)   bands (ev):

    -2.0667   2.5423   6.5561   8.3747  19.4172  24.7633  26.1506  26.7683

          k = 1.0000 0.0000 0.5000 (   892 PWs)   bands (ev):

     1.4949   1.4949   4.8450   4.8450  23.8530  23.8530  25.8067  25.8067

          k = 0.7500 0.2500 0.2500 (   908 PWs)   bands (ev):

    -2.0667   2.5423   6.5561   8.3747  19.4172  24.7633  26.1506  26.7683

          k =-0.2500-0.2500-0.7500 (   908 PWs)   bands (ev):

    -2.0667   2.5423   6.5561   8.3747  19.4172  24.7633  26.1506  26.7683

          k =-0.5000 0.0000-1.0000 (   892 PWs)   bands (ev):

     1.4949   1.4949   4.8450   4.8450  23.8530  23.8530  25.8067  25.8067

          k = 0.2500-0.7500-0.2500 (   908 PWs)   bands (ev):

    -2.0667   2.5423   6.5561   8.3747  19.4172  24.7633  26.1506  26.7683

          k = 0.0000-0.5000-0.5000 (   907 PWs)   bands (ev):

    -3.6534   4.6802   5.6325  10.2605  21.2872  23.3428  25.7299  27.3667

          k = 0.0000 0.0000-0.5000 (   902 PWs)   bands (ev):

    -5.8746   8.9100   9.1342   9.1342  17.7932  23.6240  24.9240  24.9240

          k =-0.2500 0.2500-0.7500 (   908 PWs)   bands (ev):

    -2.0667   2.5423   6.5561   8.3747  19.4172  24.7633  26.1506  26.7683

          k = 0.5000-0.5000 0.0000 (   907 PWs)   bands (ev):

    -3.6534   4.6802   5.6325  10.2605  21.2872  23.3428  25.7299  27.3667

          k = 0.2500-0.2500-0.2500 (   911 PWs)   bands (ev):

    -6.4509   6.7288  11.5371  11.5371  21.1102  21.1102  21.6413  28.0744

     highest occupied, lowest unoccupied level (ev):    13.2956   17.7932

     Writing output data file c.save
 
     init_run     :      0.79s CPU      0.89s WALL (       1 calls)
     electrons    :      6.20s CPU      6.26s WALL (       1 calls)

     Called by init_run:
     wfcinit      :      0.00s CPU      0.00s WALL (       1 calls)
     potinit      :      0.03s CPU      0.03s WALL (       1 calls)

     Called by electrons:
     c_bands      :      6.19s CPU      6.25s WALL (       1 calls)
     v_of_rho     :      0.01s CPU      0.02s WALL (       1 calls)

     Called by c_bands:
     init_us_2    :      0.00s CPU      0.00s WALL (      64 calls)
     cegterg      :      5.49s CPU      5.54s WALL (      64 calls)

     Called by sum_band:

     Called by *egterg:
     h_psi        :      0.73s CPU      0.74s WALL (     850 calls)
     g_psi        :      0.00s CPU      0.00s WALL (     722 calls)
     cdiaghg      :      2.92s CPU      2.95s WALL (     786 calls)

     Called by h_psi:
     h_psi:pot    :      0.73s CPU      0.74s WALL (     850 calls)
     h_psi:calbec :      0.04s CPU      0.05s WALL (     850 calls)
     vloc_psi     :      0.68s CPU      0.69s WALL (     850 calls)
     add_vuspsi   :      0.00s CPU      0.00s WALL (     850 calls)

     General routines
     calbec       :      0.04s CPU      0.04s WALL (     850 calls)
     fft          :      0.32s CPU      0.42s WALL (       3 calls)
     fftw         :      0.65s CPU      0.67s WALL (   12312 calls)
 
     Parallel routines
     fft_scatter  :      0.88s CPU      0.99s WALL (   12315 calls)
 
     PWSCF        :     8.60s CPU         9.21s WALL

 
   This run was terminated on:   9:34:45  20Jan2021            

=------------------------------------------------------------------------------=
   JOB DONE.
=------------------------------------------------------------------------------=
