
     Program PHONON v.6.1 (svn rev. 13369) starts on 15Dec2020 at 22:42:49 

     This program is part of the open-source Quantum ESPRESSO suite
     for quantum simulation of materials; please cite
         "P. Giannozzi et al., J. Phys.:Condens. Matter 21 395502 (2009);
          URL http://www.quantum-espresso.org", 
     in publications or presentations arising from this work. More details at
     http://www.quantum-espresso.org/quote

     Parallel version (MPI & OpenMP), running on      80 processor cores
     Number of MPI processes:                80
     Threads/MPI process:                     1
     R & G space division:  proc/nbgrp/npool/nimage =      80

     Reading data from directory:
     ./c.save

   Info: using nr1, nr2, nr3 values from input

   Info: using nr1, nr2, nr3 values from input

     IMPORTANT: XC functional enforced from input :
     Exchange-correlation      = PZ ( 1  1  0  0 0 0)
     Any further DFT definition will be discarded
     Please, verify this is what you really want

               file C.pz-mt.fhi.UPF: wavefunction(s)  3d renormalized
 
     Parallelization info
     --------------------
     sticks:   dense  smooth     PW     G-vecs:    dense   smooth      PW
     Min           6       6      1                   90       90      12
     Max           7       7      2                   94       94      18
     Sum         499     499    151                 7391     7391    1243
 


     Dynamical matrices for ( 4, 4, 4)  uniform grid of q-points
     (   8q-points):
       N         xq(1)         xq(2)         xq(3) 
       1   0.000000000   0.000000000   0.000000000
       2  -0.250000000   0.250000000  -0.250000000
       3   0.500000000  -0.500000000   0.500000000
       4   0.000000000   0.500000000   0.000000000
       5   0.750000000  -0.250000000   0.750000000
       6   0.500000000   0.000000000   0.500000000
       7   0.000000000  -1.000000000   0.000000000
       8  -0.500000000  -1.000000000   0.000000000

     Calculation of q =    0.0000000   0.0000000   0.0000000

                                                                                

     bravais-lattice index     =            2
     lattice parameter (alat)  =       6.7034  a.u.
     unit-cell volume          =      75.3061 (a.u.)^3
     number of atoms/cell      =            2
     number of atomic types    =            1
     kinetic-energy cut-off    =      80.0000  Ry
     charge density cut-off    =     320.0000  Ry
     convergence threshold     =      1.0E-24
     beta                      =       0.7000
     number of iterations used =            4
     Exchange-correlation      = PZ ( 1  1  0  0 0 0)


     celldm(1)=    6.70343  celldm(2)=    0.00000  celldm(3)=    0.00000
     celldm(4)=    0.00000  celldm(5)=    0.00000  celldm(6)=    0.00000

     crystal axes: (cart. coord. in units of alat)
               a(1) = ( -0.5000  0.0000  0.5000 )  
               a(2) = (  0.0000  0.5000  0.5000 )  
               a(3) = ( -0.5000  0.5000  0.0000 )  

     reciprocal axes: (cart. coord. in units 2 pi/alat)
               b(1) = ( -1.0000 -1.0000  1.0000 )  
               b(2) = (  1.0000  1.0000  1.0000 )  
               b(3) = ( -1.0000  1.0000 -1.0000 )  


     Atoms inside the unit cell: 

     Cartesian axes

     site n.  atom      mass           positions (alat units)
        1     C   12.0110   tau(    1) = (    0.00000    0.00000    0.00000  )
        2     C   12.0110   tau(    2) = (   -0.25000    0.25000    0.25000  )

     Computing dynamical matrix for 
                    q = (   0.0000000   0.0000000   0.0000000 )
 
     25 Sym.Ops. (with q -> -q+G )


     G cutoff =  364.2368  (     91 G-vectors)     FFT grid: ( 27, 27, 27)
     number of k points=     8

     PseudoPot. # 1 for  C read from file:
     ../C.pz-mt.fhi.UPF
     MD5 check sum: b7c38bc33a0cf75f44be89b84470f298
     Pseudo is Norm-conserving, Zval =  4.0
     Generated using FHI98PP, converted with fhi2upf.x v.5.0.2
     Using radial grid of  461 points,  2 beta functions with: 
                l(1) =   0
                l(2) =   1

     Mode symmetry, T_d (-43m)  point group:


     Electric field:
     Dielectric constant
     Born effective charges in two ways 


     Atomic displacements:
     There are   2 irreducible representations

     Representation     1      3 modes -T_2  G_15 P_4  To be done

     Representation     2      3 modes -T_2  G_15 P_4  To be done



     Alpha used in Ewald sum =   2.8000
     PHONON       :     1.44s CPU         2.16s WALL


     Electric Fields Calculation

      iter #   1 total cpu time :     2.9 secs   av.it.:   5.3
      thresh= 1.000E-02 alpha_mix =  0.700 |ddv_scf|^2 =  3.029E-09

      iter #   2 total cpu time :     3.5 secs   av.it.:   9.9
      thresh= 5.504E-06 alpha_mix =  0.700 |ddv_scf|^2 =  3.501E-11

      iter #   3 total cpu time :     3.7 secs   av.it.:   9.9
      thresh= 5.917E-07 alpha_mix =  0.700 |ddv_scf|^2 =  1.729E-12

      iter #   4 total cpu time :     3.9 secs   av.it.:  10.1
      thresh= 1.315E-07 alpha_mix =  0.700 |ddv_scf|^2 =  2.880E-15

      iter #   5 total cpu time :     4.1 secs   av.it.:   9.6
      thresh= 5.367E-09 alpha_mix =  0.700 |ddv_scf|^2 =  4.951E-19

      iter #   6 total cpu time :     4.3 secs   av.it.:  10.0
      thresh= 7.036E-11 alpha_mix =  0.700 |ddv_scf|^2 =  4.741E-21

      iter #   7 total cpu time :     4.5 secs   av.it.:   9.5
      thresh= 6.885E-12 alpha_mix =  0.700 |ddv_scf|^2 =  3.575E-24

      iter #   8 total cpu time :     4.7 secs   av.it.:   9.5
      thresh= 1.891E-13 alpha_mix =  0.700 |ddv_scf|^2 =  2.666E-26

     End of electric fields calculation

          Dielectric constant in cartesian axis 

          (       7.233502003      -0.000000000      -0.000000000 )
          (       0.000000000       7.233502003      -0.000000000 )
          (       0.000000000      -0.000000000       7.233502003 )

          Effective charges (d Force / dE) in cartesian axis

           atom      1   C  
      Ex  (       -0.34923       -0.00000        0.00000 )
      Ey  (       -0.00000       -0.34923        0.00000 )
      Ez  (        0.00000        0.00000       -0.34923 )
           atom      2   C  
      Ex  (       -0.34927       -0.00000       -0.00000 )
      Ey  (       -0.00000       -0.34927        0.00000 )
      Ez  (       -0.00000        0.00000       -0.34927 )


     Representation #  1 modes #   1  2  3

     Self-consistent Calculation

      iter #   1 total cpu time :     5.3 secs   av.it.:   6.3
      thresh= 1.000E-02 alpha_mix =  0.700 |ddv_scf|^2 =  3.862E-08

      iter #   2 total cpu time :     6.6 secs   av.it.:  10.8
      thresh= 1.965E-05 alpha_mix =  0.700 |ddv_scf|^2 =  7.521E-11

      iter #   3 total cpu time :     8.1 secs   av.it.:  10.3
      thresh= 8.672E-07 alpha_mix =  0.700 |ddv_scf|^2 =  2.225E-12

      iter #   4 total cpu time :     9.0 secs   av.it.:  10.1
      thresh= 1.492E-07 alpha_mix =  0.700 |ddv_scf|^2 =  8.166E-14

      iter #   5 total cpu time :     9.5 secs   av.it.:  10.1
      thresh= 2.858E-08 alpha_mix =  0.700 |ddv_scf|^2 =  1.086E-16

      iter #   6 total cpu time :    10.2 secs   av.it.:  11.0
      thresh= 1.042E-09 alpha_mix =  0.700 |ddv_scf|^2 =  1.464E-19

      iter #   7 total cpu time :    10.6 secs   av.it.:  11.0
      thresh= 3.827E-11 alpha_mix =  0.700 |ddv_scf|^2 =  8.145E-21

      iter #   8 total cpu time :    11.1 secs   av.it.:  11.1
      thresh= 9.025E-12 alpha_mix =  0.700 |ddv_scf|^2 =  2.117E-23

      iter #   9 total cpu time :    11.8 secs   av.it.:  10.5
      thresh= 4.601E-13 alpha_mix =  0.700 |ddv_scf|^2 =  2.934E-26

     End of self-consistent calculation

     Convergence has been achieved 


     Representation #  2 modes #   4  5  6

     Self-consistent Calculation

      iter #   1 total cpu time :    12.1 secs   av.it.:   6.2
      thresh= 1.000E-02 alpha_mix =  0.700 |ddv_scf|^2 =  3.862E-08

      iter #   2 total cpu time :    12.6 secs   av.it.:  10.7
      thresh= 1.965E-05 alpha_mix =  0.700 |ddv_scf|^2 =  7.516E-11

      iter #   3 total cpu time :    13.1 secs   av.it.:  10.3
      thresh= 8.670E-07 alpha_mix =  0.700 |ddv_scf|^2 =  2.224E-12

      iter #   4 total cpu time :    13.4 secs   av.it.:  10.1
      thresh= 1.491E-07 alpha_mix =  0.700 |ddv_scf|^2 =  8.198E-14

      iter #   5 total cpu time :    13.9 secs   av.it.:  10.0
      thresh= 2.863E-08 alpha_mix =  0.700 |ddv_scf|^2 =  1.090E-16

      iter #   6 total cpu time :    14.3 secs   av.it.:  10.8
      thresh= 1.044E-09 alpha_mix =  0.700 |ddv_scf|^2 =  1.467E-19

      iter #   7 total cpu time :    14.7 secs   av.it.:  10.8
      thresh= 3.830E-11 alpha_mix =  0.700 |ddv_scf|^2 =  8.179E-21

      iter #   8 total cpu time :    15.3 secs   av.it.:  11.0
      thresh= 9.044E-12 alpha_mix =  0.700 |ddv_scf|^2 =  2.117E-23

      iter #   9 total cpu time :    15.5 secs   av.it.:  10.5
      thresh= 4.601E-13 alpha_mix =  0.700 |ddv_scf|^2 =  2.623E-26

     End of self-consistent calculation

     Convergence has been achieved 
 
     Number of q in the star =    1
     List of q in the star:
          1   0.000000000   0.000000000   0.000000000

          Dielectric constant in cartesian axis 

          (       7.233502003      -0.000000000      -0.000000000 )
          (       0.000000000       7.233502003      -0.000000000 )
          (       0.000000000      -0.000000000       7.233502003 )

          Effective charges (d Force / dE) in cartesian axis

           atom      1   C  
      Ex  (       -0.34923       -0.00000        0.00000 )
      Ey  (       -0.00000       -0.34923        0.00000 )
      Ez  (        0.00000        0.00000       -0.34923 )
           atom      2   C  
      Ex  (       -0.34927       -0.00000       -0.00000 )
      Ey  (       -0.00000       -0.34927        0.00000 )
      Ez  (       -0.00000        0.00000       -0.34927 )

          Effective charges (d P / du) in cartesian axis 

           atom      1   C  
      Px  (       -0.34923        0.00000       -0.00000 )
      Py  (        0.00000       -0.34923        0.00000 )
      Pz  (       -0.00000        0.00000       -0.34923 )
           atom      2   C  
      Px  (       -0.34927       -0.00000        0.00000 )
      Py  (        0.00000       -0.34927       -0.00000 )
      Pz  (       -0.00000       -0.00000       -0.34927 )

     Diagonalizing the dynamical matrix

     q = (    0.000000000   0.000000000   0.000000000 ) 

 **************************************************************************
     freq (    1) =      -5.092569 [THz] =    -169.869819 [cm-1]
     freq (    2) =      -5.092569 [THz] =    -169.869819 [cm-1]
     freq (    3) =      -5.092569 [THz] =    -169.869819 [cm-1]
     freq (    4) =      39.410850 [THz] =    1314.604445 [cm-1]
     freq (    5) =      39.410850 [THz] =    1314.604445 [cm-1]
     freq (    6) =      39.410850 [THz] =    1314.604445 [cm-1]
 **************************************************************************

     Mode symmetry, T_d (-43m)  point group:

     freq (  1 -  3) =       -169.9  [cm-1]   --> T_2  G_15 P_4   I+R
     freq (  4 -  6) =       1314.6  [cm-1]   --> T_2  G_15 P_4   I+R

     Calculation of q =   -0.2500000   0.2500000  -0.2500000

   Info: using nr1, nr2, nr3 values from input

   Info: using nr1, nr2, nr3 values from input
 
     Parallelization info
     --------------------
     sticks:   dense  smooth     PW     G-vecs:    dense   smooth      PW
     Min           6       6      2                   90       90      16
     Max           7       7      3                   94       94      19
     Sum         499     499    163                 7391     7391    1411
 


     bravais-lattice index     =            2
     lattice parameter (alat)  =       6.7034  a.u.
     unit-cell volume          =      75.3061 (a.u.)^3
     number of atoms/cell      =            2
     number of atomic types    =            1
     number of electrons       =         8.00
     number of Kohn-Sham states=            8
     kinetic-energy cutoff     =      80.0000  Ry
     charge density cutoff     =     320.0000  Ry
     Exchange-correlation      = PZ ( 1  1  0  0 0 0)

     celldm(1)=   6.703426  celldm(2)=   0.000000  celldm(3)=   0.000000
     celldm(4)=   0.000000  celldm(5)=   0.000000  celldm(6)=   0.000000

     crystal axes: (cart. coord. in units of alat)
               a(1) = (  -0.500000   0.000000   0.500000 )  
               a(2) = (   0.000000   0.500000   0.500000 )  
               a(3) = (  -0.500000   0.500000   0.000000 )  

     reciprocal axes: (cart. coord. in units 2 pi/alat)
               b(1) = ( -1.000000 -1.000000  1.000000 )  
               b(2) = (  1.000000  1.000000  1.000000 )  
               b(3) = ( -1.000000  1.000000 -1.000000 )  


     PseudoPot. # 1 for  C read from file:
     ../C.pz-mt.fhi.UPF
     MD5 check sum: b7c38bc33a0cf75f44be89b84470f298
     Pseudo is Norm-conserving, Zval =  4.0
     Generated using FHI98PP, converted with fhi2upf.x v.5.0.2
     Using radial grid of  461 points,  2 beta functions with: 
                l(1) =   0
                l(2) =   1

     atomic species   valence    mass     pseudopotential
        C              4.00    12.01100      C( 1.00)

     24 Sym. Ops. (no inversion) found



   Cartesian axes

     site n.     atom                  positions (alat units)
         1           C   tau(   1) = (   0.0000000   0.0000000   0.0000000  )
         2           C   tau(   2) = (  -0.2500000   0.2500000   0.2500000  )

     number of k points=    40
                       cart. coord. in units 2pi/alat
        k(    1) = (   0.0000000   0.0000000   0.0000000), wk =   0.0312500
        k(    2) = (  -0.2500000   0.2500000  -0.2500000), wk =   0.0000000
        k(    3) = (  -0.2500000   0.2500000  -0.2500000), wk =   0.0312500
        k(    4) = (  -0.5000000   0.5000000  -0.5000000), wk =   0.0000000
        k(    5) = (   0.5000000  -0.5000000   0.5000000), wk =   0.0312500
        k(    6) = (   0.2500000  -0.2500000   0.2500000), wk =   0.0000000
        k(    7) = (   0.0000000   0.5000000   0.0000000), wk =   0.0937500
        k(    8) = (  -0.2500000   0.7500000  -0.2500000), wk =   0.0000000
        k(    9) = (   0.7500000  -0.2500000   0.7500000), wk =   0.0937500
        k(   10) = (   0.5000000   0.0000000   0.5000000), wk =   0.0000000
        k(   11) = (   0.5000000   0.0000000   0.5000000), wk =   0.0937500
        k(   12) = (   0.2500000   0.2500000   0.2500000), wk =   0.0000000
        k(   13) = (   0.0000000  -1.0000000   0.0000000), wk =   0.0937500
        k(   14) = (  -0.2500000  -0.7500000  -0.2500000), wk =   0.0000000
        k(   15) = (  -0.5000000  -1.0000000   0.0000000), wk =   0.1875000
        k(   16) = (  -0.7500000  -0.7500000  -0.2500000), wk =   0.0000000
        k(   17) = (   0.2500000  -0.2500000  -0.2500000), wk =   0.0937500
        k(   18) = (   0.0000000   0.0000000  -0.5000000), wk =   0.0000000
        k(   19) = (   0.2500000  -0.2500000   0.2500000), wk =   0.0312500
        k(   20) = (   0.0000000   0.0000000   0.0000000), wk =   0.0000000
        k(   21) = (  -0.2500000   0.2500000   0.2500000), wk =   0.0937500
        k(   22) = (  -0.5000000   0.5000000   0.0000000), wk =   0.0000000
        k(   23) = (  -0.5000000   0.5000000   0.5000000), wk =   0.0937500
        k(   24) = (  -0.7500000   0.7500000   0.2500000), wk =   0.0000000
        k(   25) = (   0.0000000  -0.5000000   0.0000000), wk =   0.0937500
        k(   26) = (  -0.2500000  -0.2500000  -0.2500000), wk =   0.0000000
        k(   27) = (  -0.7500000   0.2500000   0.7500000), wk =   0.1875000
        k(   28) = (  -1.0000000   0.5000000   0.5000000), wk =   0.0000000
        k(   29) = (  -0.7500000   0.7500000   0.2500000), wk =   0.0937500
        k(   30) = (  -1.0000000   1.0000000   0.0000000), wk =   0.0000000
        k(   31) = (  -0.7500000   0.2500000  -0.7500000), wk =   0.0937500
        k(   32) = (  -1.0000000   0.5000000  -1.0000000), wk =   0.0000000
        k(   33) = (   0.7500000  -0.2500000  -0.7500000), wk =   0.1875000
        k(   34) = (   0.5000000   0.0000000  -1.0000000), wk =   0.0000000
        k(   35) = (   0.7500000   0.2500000   0.7500000), wk =   0.0937500
        k(   36) = (   0.5000000   0.5000000   0.5000000), wk =   0.0000000
        k(   37) = (  -0.5000000   0.0000000   0.5000000), wk =   0.1875000
        k(   38) = (  -0.7500000   0.2500000   0.2500000), wk =   0.0000000
        k(   39) = (  -0.5000000   0.5000000   0.0000000), wk =   0.0937500
        k(   40) = (  -0.7500000   0.7500000  -0.2500000), wk =   0.0000000

     Dense  grid:     7391 G-vectors     FFT dimensions: (  27,  27,  27)

     Estimated max dynamical RAM per process >       0.25MB

     Estimated total allocated dynamical RAM >      20.30MB
     Message from routine sym_rho_init:
     some processors have no G-vectors for symmetrization
     Message from routine sym_rho_init:
     some processors have no G-vectors for symmetrization
     Message from routine sym_rho_init:
     some processors have no G-vectors for symmetrization
     Message from routine sym_rho_init:
     some processors have no G-vectors for symmetrization
     Message from routine sym_rho_init:
     some processors have no G-vectors for symmetrization
     Message from routine sym_rho_init:
     some processors have no G-vectors for symmetrization
     Message from routine sym_rho_init:
     some processors have no G-vectors for symmetrization
     Message from routine sym_rho_init:
     some processors have no G-vectors for symmetrization
     Message from routine sym_rho_init:
     some processors have no G-vectors for symmetrization
     Message from routine sym_rho_init:
     some processors have no G-vectors for symmetrization
     Message from routine sym_rho_init:
     some processors have no G-vectors for symmetrization
     Message from routine sym_rho_init:
     some processors have no G-vectors for symmetrization
     Message from routine sym_rho_init:
     some processors have no G-vectors for symmetrization
     Message from routine sym_rho_init:
     some processors have no G-vectors for symmetrization
     Message from routine sym_rho_init:
     some processors have no G-vectors for symmetrization
     Message from routine sym_rho_init:
     some processors have no G-vectors for symmetrization
     Message from routine sym_rho_init:
     some processors have no G-vectors for symmetrization
     Message from routine sym_rho_init:
     some processors have no G-vectors for symmetrization
     Message from routine sym_rho_init:
     some processors have no G-vectors for symmetrization
     Message from routine sym_rho_init:
     some processors have no G-vectors for symmetrization
     Message from routine sym_rho_init:
     some processors have no G-vectors for symmetrization
     Message from routine sym_rho_init:
     some processors have no G-vectors for symmetrization
     Message from routine sym_rho_init:
     some processors have no G-vectors for symmetrization
     Message from routine sym_rho_init:
     some processors have no G-vectors for symmetrization
     Message from routine sym_rho_init:
     some processors have no G-vectors for symmetrization
     Message from routine sym_rho_init:
     some processors have no G-vectors for symmetrization
     Message from routine sym_rho_init:
     some processors have no G-vectors for symmetrization
     Message from routine sym_rho_init:
     some processors have no G-vectors for symmetrization
     Message from routine sym_rho_init:
     some processors have no G-vectors for symmetrization
     Message from routine sym_rho_init:
     some processors have no G-vectors for symmetrization
     Message from routine sym_rho_init:
     some processors have no G-vectors for symmetrization
     Message from routine sym_rho_init:
     some processors have no G-vectors for symmetrization
     Message from routine sym_rho_init:
     some processors have no G-vectors for symmetrization
     Message from routine sym_rho_init:
     some processors have no G-vectors for symmetrization
     Message from routine sym_rho_init:
     some processors have no G-vectors for symmetrization
     Message from routine sym_rho_init:
     some processors have no G-vectors for symmetrization
     Message from routine sym_rho_init:
     some processors have no G-vectors for symmetrization
     Message from routine sym_rho_init:
     some processors have no G-vectors for symmetrization
     Message from routine sym_rho_init:
     some processors have no G-vectors for symmetrization
     Message from routine sym_rho_init:
     some processors have no G-vectors for symmetrization
     Message from routine sym_rho_init:
     some processors have no G-vectors for symmetrization
     Message from routine sym_rho_init:
     some processors have no G-vectors for symmetrization

     The potential is recalculated from file :
     ./_ph0/c.q_2/c.save/charge-density.dat

     Starting wfc are   18 atomic wfcs

     Band Structure Calculation
     Davidson diagonalization with overlap

     ethr =  1.25E-10,  avg # of iterations =  9.3

     total cpu time spent up to now is        0.7 secs

     End of band structure calculation

          k = 0.0000 0.0000 0.0000 (   941 PWs)   bands (ev):

    -8.1914  13.2956  13.2956  13.2956  18.9011  18.9011  18.9011  27.0685

          k =-0.2500 0.2500-0.2500 (   911 PWs)   bands (ev):

    -6.4509   6.7288  11.5371  11.5371  21.1102  21.1102  21.6413  28.0744

          k =-0.2500 0.2500-0.2500 (   911 PWs)   bands (ev):

    -6.4509   6.7288  11.5371  11.5371  21.1102  21.1102  21.6413  28.0744

          k =-0.5000 0.5000-0.5000 (   912 PWs)   bands (ev):

    -2.2438  -0.1777  10.4768  10.4768  21.7742  21.7742  22.5143  28.8818

          k = 0.5000-0.5000 0.5000 (   912 PWs)   bands (ev):

    -2.2438  -0.1777  10.4768  10.4768  21.7742  21.7742  22.5143  28.8818

          k = 0.2500-0.2500 0.2500 (   911 PWs)   bands (ev):

    -6.4509   6.7288  11.5371  11.5371  21.1102  21.1102  21.6413  28.0744

          k = 0.0000 0.5000 0.0000 (   902 PWs)   bands (ev):

    -5.8746   8.9100   9.1342   9.1342  17.7932  23.6240  24.9240  24.9240

          k =-0.2500 0.7500-0.2500 (   908 PWs)   bands (ev):

    -2.0667   2.5423   6.5561   8.3747  19.4172  24.7633  26.1506  26.7683

          k = 0.7500-0.2500 0.7500 (   908 PWs)   bands (ev):

    -2.0667   2.5423   6.5561   8.3747  19.4172  24.7633  26.1506  26.7683

          k = 0.5000 0.0000 0.5000 (   907 PWs)   bands (ev):

    -3.6534   4.6802   5.6325  10.2605  21.2872  23.3428  25.7299  27.3667

          k = 0.5000 0.0000 0.5000 (   907 PWs)   bands (ev):

    -3.6534   4.6802   5.6325  10.2605  21.2872  23.3428  25.7299  27.3667

          k = 0.2500 0.2500 0.2500 (   911 PWs)   bands (ev):

    -6.4509   6.7288  11.5371  11.5371  21.1102  21.1102  21.6413  28.0744

          k = 0.0000-1.0000 0.0000 (   934 PWs)   bands (ev):

     0.6357   0.6357   6.9374   6.9374  18.1025  18.1025  30.1520  30.1520

          k =-0.2500-0.7500-0.2500 (   908 PWs)   bands (ev):

    -2.0667   2.5423   6.5561   8.3747  19.4172  24.7633  26.1506  26.7683

          k =-0.5000-1.0000 0.0000 (   892 PWs)   bands (ev):

     1.4949   1.4949   4.8450   4.8450  23.8530  23.8530  25.8067  25.8067

          k =-0.7500-0.7500-0.2500 (   908 PWs)   bands (ev):

    -2.0667   2.5423   6.5561   8.3747  19.4172  24.7633  26.1506  26.7683

          k = 0.2500-0.2500-0.2500 (   911 PWs)   bands (ev):

    -6.4509   6.7288  11.5371  11.5371  21.1102  21.1102  21.6413  28.0744

          k = 0.0000 0.0000-0.5000 (   902 PWs)   bands (ev):

    -5.8746   8.9100   9.1342   9.1342  17.7932  23.6240  24.9240  24.9240

          k = 0.2500-0.2500 0.2500 (   911 PWs)   bands (ev):

    -6.4509   6.7288  11.5371  11.5371  21.1102  21.1102  21.6413  28.0744

          k = 0.0000 0.0000 0.0000 (   941 PWs)   bands (ev):

    -8.1914  13.2956  13.2956  13.2956  18.9011  18.9011  18.9011  27.0685

          k =-0.2500 0.2500 0.2500 (   911 PWs)   bands (ev):

    -6.4509   6.7288  11.5371  11.5371  21.1102  21.1102  21.6413  28.0744

          k =-0.5000 0.5000 0.0000 (   907 PWs)   bands (ev):

    -3.6534   4.6802   5.6325  10.2605  21.2872  23.3428  25.7299  27.3667

          k =-0.5000 0.5000 0.5000 (   912 PWs)   bands (ev):

    -2.2438  -0.1777  10.4768  10.4768  21.7742  21.7742  22.5143  28.8818

          k =-0.7500 0.7500 0.2500 (   908 PWs)   bands (ev):

    -2.0667   2.5423   6.5561   8.3747  19.4172  24.7633  26.1506  26.7683

          k = 0.0000-0.5000 0.0000 (   902 PWs)   bands (ev):

    -5.8746   8.9100   9.1342   9.1342  17.7932  23.6240  24.9240  24.9240

          k =-0.2500-0.2500-0.2500 (   911 PWs)   bands (ev):

    -6.4509   6.7288  11.5371  11.5371  21.1102  21.1102  21.6413  28.0744

          k =-0.7500 0.2500 0.7500 (   908 PWs)   bands (ev):

    -2.0667   2.5423   6.5561   8.3747  19.4172  24.7633  26.1506  26.7683

          k =-1.0000 0.5000 0.5000 (   907 PWs)   bands (ev):

    -3.6534   4.6802   5.6325  10.2605  21.2872  23.3428  25.7299  27.3667

          k =-0.7500 0.7500 0.2500 (   908 PWs)   bands (ev):

    -2.0667   2.5423   6.5561   8.3747  19.4172  24.7633  26.1506  26.7683

          k =-1.0000 1.0000 0.0000 (   934 PWs)   bands (ev):

     0.6357   0.6357   6.9374   6.9374  18.1025  18.1025  30.1520  30.1520

          k =-0.7500 0.2500-0.7500 (   908 PWs)   bands (ev):

    -2.0667   2.5423   6.5561   8.3747  19.4172  24.7633  26.1506  26.7683

          k =-1.0000 0.5000-1.0000 (   902 PWs)   bands (ev):

    -5.8746   8.9100   9.1342   9.1342  17.7932  23.6240  24.9240  24.9240

          k = 0.7500-0.2500-0.7500 (   908 PWs)   bands (ev):

    -2.0667   2.5423   6.5561   8.3747  19.4172  24.7633  26.1506  26.7683

          k = 0.5000 0.0000-1.0000 (   892 PWs)   bands (ev):

     1.4949   1.4949   4.8450   4.8450  23.8530  23.8530  25.8067  25.8067

          k = 0.7500 0.2500 0.7500 (   908 PWs)   bands (ev):

    -2.0667   2.5423   6.5561   8.3747  19.4172  24.7633  26.1506  26.7683

          k = 0.5000 0.5000 0.5000 (   912 PWs)   bands (ev):

    -2.2438  -0.1777  10.4768  10.4768  21.7742  21.7742  22.5143  28.8818

          k =-0.5000 0.0000 0.5000 (   907 PWs)   bands (ev):

    -3.6534   4.6802   5.6325  10.2605  21.2872  23.3428  25.7299  27.3667

          k =-0.7500 0.2500 0.2500 (   908 PWs)   bands (ev):

    -2.0667   2.5423   6.5561   8.3747  19.4172  24.7633  26.1506  26.7683

          k =-0.5000 0.5000 0.0000 (   907 PWs)   bands (ev):

    -3.6534   4.6802   5.6325  10.2605  21.2872  23.3428  25.7299  27.3667

          k =-0.7500 0.7500-0.2500 (   908 PWs)   bands (ev):

    -2.0667   2.5423   6.5561   8.3747  19.4172  24.7633  26.1506  26.7683

     highest occupied, lowest unoccupied level (ev):    13.2956   17.7932

     Writing output data file c.save

                                                                                

     bravais-lattice index     =            2
     lattice parameter (alat)  =       6.7034  a.u.
     unit-cell volume          =      75.3061 (a.u.)^3
     number of atoms/cell      =            2
     number of atomic types    =            1
     kinetic-energy cut-off    =      80.0000  Ry
     charge density cut-off    =     320.0000  Ry
     convergence threshold     =      1.0E-24
     beta                      =       0.7000
     number of iterations used =            4
     Exchange-correlation      = PZ ( 1  1  0  0 0 0)


     celldm(1)=    6.70343  celldm(2)=    0.00000  celldm(3)=    0.00000
     celldm(4)=    0.00000  celldm(5)=    0.00000  celldm(6)=    0.00000

     crystal axes: (cart. coord. in units of alat)
               a(1) = ( -0.5000  0.0000  0.5000 )  
               a(2) = (  0.0000  0.5000  0.5000 )  
               a(3) = ( -0.5000  0.5000  0.0000 )  

     reciprocal axes: (cart. coord. in units 2 pi/alat)
               b(1) = ( -1.0000 -1.0000  1.0000 )  
               b(2) = (  1.0000  1.0000  1.0000 )  
               b(3) = ( -1.0000  1.0000 -1.0000 )  


     Atoms inside the unit cell: 

     Cartesian axes

     site n.  atom      mass           positions (alat units)
        1     C   12.0110   tau(    1) = (    0.00000    0.00000    0.00000  )
        2     C   12.0110   tau(    2) = (   -0.25000    0.25000    0.25000  )

     Computing dynamical matrix for 
                    q = (  -0.2500000   0.2500000  -0.2500000 )
 
      6 Sym.Ops. (no q -> -q+G )


     G cutoff =  364.2368  (     91 G-vectors)     FFT grid: ( 27, 27, 27)
     number of k points=    40

     PseudoPot. # 1 for  C read from file:
     ../C.pz-mt.fhi.UPF
     MD5 check sum: b7c38bc33a0cf75f44be89b84470f298
     Pseudo is Norm-conserving, Zval =  4.0
     Generated using FHI98PP, converted with fhi2upf.x v.5.0.2
     Using radial grid of  461 points,  2 beta functions with: 
                l(1) =   0
                l(2) =   1

     Mode symmetry, C_3v (3m)   point group:


     Atomic displacements:
     There are   4 irreducible representations

     Representation     1      1 modes -A_1  L_1  To be done

     Representation     2      1 modes -A_1  L_1  To be done

     Representation     3      2 modes -E    L_3  To be done

     Representation     4      2 modes -E    L_3  To be done



     Alpha used in Ewald sum =   2.8000
     PHONON       :    14.50s CPU        17.79s WALL



     Representation #  1 mode #   1

     Self-consistent Calculation

      iter #   1 total cpu time :    18.1 secs   av.it.:   6.7
      thresh= 1.000E-02 alpha_mix =  0.700 |ddv_scf|^2 =  2.243E-04

      iter #   2 total cpu time :    19.3 secs   av.it.:   8.7
      thresh= 1.498E-03 alpha_mix =  0.700 |ddv_scf|^2 =  8.337E-04

      iter #   3 total cpu time :    19.8 secs   av.it.:   7.7
      thresh= 2.887E-03 alpha_mix =  0.700 |ddv_scf|^2 =  2.256E-08

      iter #   4 total cpu time :    19.9 secs   av.it.:   9.6
      thresh= 1.502E-05 alpha_mix =  0.700 |ddv_scf|^2 =  4.478E-09

      iter #   5 total cpu time :    20.1 secs   av.it.:   9.1
      thresh= 6.692E-06 alpha_mix =  0.700 |ddv_scf|^2 =  1.379E-11

      iter #   6 total cpu time :    20.2 secs   av.it.:   9.7
      thresh= 3.713E-07 alpha_mix =  0.700 |ddv_scf|^2 =  8.553E-13

      iter #   7 total cpu time :    20.4 secs   av.it.:   9.2
      thresh= 9.248E-08 alpha_mix =  0.700 |ddv_scf|^2 =  6.331E-14

      iter #   8 total cpu time :    20.5 secs   av.it.:   8.8
      thresh= 2.516E-08 alpha_mix =  0.700 |ddv_scf|^2 =  8.970E-14

      iter #   9 total cpu time :    20.6 secs   av.it.:   8.2
      thresh= 2.995E-08 alpha_mix =  0.700 |ddv_scf|^2 =  4.924E-15

      iter #  10 total cpu time :    20.7 secs   av.it.:   8.4
      thresh= 7.017E-09 alpha_mix =  0.700 |ddv_scf|^2 =  1.425E-15

      iter #  11 total cpu time :    20.9 secs   av.it.:   8.6
      thresh= 3.774E-09 alpha_mix =  0.700 |ddv_scf|^2 =  2.372E-18

      iter #  12 total cpu time :    21.0 secs   av.it.:   9.3
      thresh= 1.540E-10 alpha_mix =  0.700 |ddv_scf|^2 =  1.013E-18

      iter #  13 total cpu time :    21.1 secs   av.it.:   9.0
      thresh= 1.007E-10 alpha_mix =  0.700 |ddv_scf|^2 =  5.079E-20

      iter #  14 total cpu time :    21.3 secs   av.it.:   9.1
      thresh= 2.254E-11 alpha_mix =  0.700 |ddv_scf|^2 =  5.025E-21

      iter #  15 total cpu time :    22.3 secs   av.it.:   9.2
      thresh= 7.089E-12 alpha_mix =  0.700 |ddv_scf|^2 =  6.499E-23

      iter #  16 total cpu time :    23.0 secs   av.it.:   9.1
      thresh= 8.061E-13 alpha_mix =  0.700 |ddv_scf|^2 =  2.020E-23

      iter #  17 total cpu time :    23.9 secs   av.it.:   8.3
      thresh= 4.494E-13 alpha_mix =  0.700 |ddv_scf|^2 =  1.398E-24

      iter #  18 total cpu time :    24.2 secs   av.it.:   9.1
      thresh= 1.182E-13 alpha_mix =  0.700 |ddv_scf|^2 =  2.074E-26

     End of self-consistent calculation

     Convergence has been achieved 


     Representation #  2 mode #   2

     Self-consistent Calculation

      iter #   1 total cpu time :    26.9 secs   av.it.:   6.8
      thresh= 1.000E-02 alpha_mix =  0.700 |ddv_scf|^2 =  2.244E-04

      iter #   2 total cpu time :    27.0 secs   av.it.:   8.7
      thresh= 1.498E-03 alpha_mix =  0.700 |ddv_scf|^2 =  8.339E-04

      iter #   3 total cpu time :    27.2 secs   av.it.:   7.7
      thresh= 2.888E-03 alpha_mix =  0.700 |ddv_scf|^2 =  2.259E-08

      iter #   4 total cpu time :    27.3 secs   av.it.:   9.6
      thresh= 1.503E-05 alpha_mix =  0.700 |ddv_scf|^2 =  4.482E-09

      iter #   5 total cpu time :    27.5 secs   av.it.:   9.1
      thresh= 6.694E-06 alpha_mix =  0.700 |ddv_scf|^2 =  1.379E-11

      iter #   6 total cpu time :    27.8 secs   av.it.:   9.7
      thresh= 3.714E-07 alpha_mix =  0.700 |ddv_scf|^2 =  9.101E-13

      iter #   7 total cpu time :    28.3 secs   av.it.:   9.2
      thresh= 9.540E-08 alpha_mix =  0.700 |ddv_scf|^2 =  2.309E-13

      iter #   8 total cpu time :    28.8 secs   av.it.:   8.7
      thresh= 4.805E-08 alpha_mix =  0.700 |ddv_scf|^2 =  3.693E-13

      iter #   9 total cpu time :    29.2 secs   av.it.:   8.3
      thresh= 6.077E-08 alpha_mix =  0.700 |ddv_scf|^2 =  1.313E-14

      iter #  10 total cpu time :    29.7 secs   av.it.:   8.6
      thresh= 1.146E-08 alpha_mix =  0.700 |ddv_scf|^2 =  2.863E-15

      iter #  11 total cpu time :    30.0 secs   av.it.:   8.6
      thresh= 5.351E-09 alpha_mix =  0.700 |ddv_scf|^2 =  6.796E-18

      iter #  12 total cpu time :    30.4 secs   av.it.:   9.4
      thresh= 2.607E-10 alpha_mix =  0.700 |ddv_scf|^2 =  3.100E-18

      iter #  13 total cpu time :    30.8 secs   av.it.:   9.1
      thresh= 1.761E-10 alpha_mix =  0.700 |ddv_scf|^2 =  2.642E-19

      iter #  14 total cpu time :    31.1 secs   av.it.:   9.3
      thresh= 5.140E-11 alpha_mix =  0.700 |ddv_scf|^2 =  2.186E-20

      iter #  15 total cpu time :    31.4 secs   av.it.:   9.1
      thresh= 1.479E-11 alpha_mix =  0.700 |ddv_scf|^2 =  7.136E-22

      iter #  16 total cpu time :    31.5 secs   av.it.:   8.8
      thresh= 2.671E-12 alpha_mix =  0.700 |ddv_scf|^2 =  4.531E-23

      iter #  17 total cpu time :    31.7 secs   av.it.:   8.8
      thresh= 6.731E-13 alpha_mix =  0.700 |ddv_scf|^2 =  4.313E-24

      iter #  18 total cpu time :    31.8 secs   av.it.:   9.1
      thresh= 2.077E-13 alpha_mix =  0.700 |ddv_scf|^2 =  2.415E-24

      iter #  19 total cpu time :    32.1 secs   av.it.:   8.7
      thresh= 1.554E-13 alpha_mix =  0.700 |ddv_scf|^2 =  3.146E-26

     End of self-consistent calculation

     Convergence has been achieved 


     Representation #  3 modes #   3  4

     Self-consistent Calculation

      iter #   1 total cpu time :    32.5 secs   av.it.:   6.1
      thresh= 1.000E-02 alpha_mix =  0.700 |ddv_scf|^2 =  1.083E-07

      iter #   2 total cpu time :    36.9 secs   av.it.:  10.3
      thresh= 3.292E-05 alpha_mix =  0.700 |ddv_scf|^2 =  1.591E-10

      iter #   3 total cpu time :    37.2 secs   av.it.:  10.2
      thresh= 1.261E-06 alpha_mix =  0.700 |ddv_scf|^2 =  6.392E-12

      iter #   4 total cpu time :    38.3 secs   av.it.:   9.9
      thresh= 2.528E-07 alpha_mix =  0.700 |ddv_scf|^2 =  2.209E-13

      iter #   5 total cpu time :    40.5 secs   av.it.:   9.8
      thresh= 4.700E-08 alpha_mix =  0.700 |ddv_scf|^2 =  6.651E-16

      iter #   6 total cpu time :    41.2 secs   av.it.:  10.3
      thresh= 2.579E-09 alpha_mix =  0.700 |ddv_scf|^2 =  1.847E-18

      iter #   7 total cpu time :    43.0 secs   av.it.:  10.5
      thresh= 1.359E-10 alpha_mix =  0.700 |ddv_scf|^2 =  8.238E-20

      iter #   8 total cpu time :    43.3 secs   av.it.:  10.7
      thresh= 2.870E-11 alpha_mix =  0.700 |ddv_scf|^2 =  2.452E-22

      iter #   9 total cpu time :    45.5 secs   av.it.:  10.3
      thresh= 1.566E-12 alpha_mix =  0.700 |ddv_scf|^2 =  6.415E-25

     End of self-consistent calculation

     Convergence has been achieved 


     Representation #  4 modes #   5  6

     Self-consistent Calculation

      iter #   1 total cpu time :    46.1 secs   av.it.:   6.3
      thresh= 1.000E-02 alpha_mix =  0.700 |ddv_scf|^2 =  1.083E-07

      iter #   2 total cpu time :    46.9 secs   av.it.:  10.5
      thresh= 3.291E-05 alpha_mix =  0.700 |ddv_scf|^2 =  1.580E-10

      iter #   3 total cpu time :    47.2 secs   av.it.:  10.4
      thresh= 1.257E-06 alpha_mix =  0.700 |ddv_scf|^2 =  6.382E-12

      iter #   4 total cpu time :    47.5 secs   av.it.:  10.1
      thresh= 2.526E-07 alpha_mix =  0.700 |ddv_scf|^2 =  2.195E-13

      iter #   5 total cpu time :    47.8 secs   av.it.:   9.9
      thresh= 4.685E-08 alpha_mix =  0.700 |ddv_scf|^2 =  6.644E-16

      iter #   6 total cpu time :    48.0 secs   av.it.:  10.4
      thresh= 2.578E-09 alpha_mix =  0.700 |ddv_scf|^2 =  1.847E-18

      iter #   7 total cpu time :    48.3 secs   av.it.:  10.7
      thresh= 1.359E-10 alpha_mix =  0.700 |ddv_scf|^2 =  8.226E-20

      iter #   8 total cpu time :    49.7 secs   av.it.:  10.8
      thresh= 2.868E-11 alpha_mix =  0.700 |ddv_scf|^2 =  2.455E-22

      iter #   9 total cpu time :    52.4 secs   av.it.:  10.5
      thresh= 1.567E-12 alpha_mix =  0.700 |ddv_scf|^2 =  7.328E-25

     End of self-consistent calculation

     Convergence has been achieved 
 
     Number of q in the star =    4
     List of q in the star:
          1  -0.250000000   0.250000000  -0.250000000
          2   0.250000000  -0.250000000  -0.250000000
          3  -0.250000000  -0.250000000   0.250000000
          4   0.250000000   0.250000000   0.250000000
     In addition there is the -q list: 
          1   0.250000000  -0.250000000   0.250000000
          2  -0.250000000   0.250000000   0.250000000
          3   0.250000000   0.250000000  -0.250000000
          4  -0.250000000  -0.250000000  -0.250000000

     Diagonalizing the dynamical matrix

     q = (   -0.250000000   0.250000000  -0.250000000 ) 

 **************************************************************************
     freq (    1) =      11.154172 [THz] =     372.063122 [cm-1]
     freq (    2) =      11.154172 [THz] =     372.063122 [cm-1]
     freq (    3) =      19.891428 [THz] =     663.506617 [cm-1]
     freq (    4) =      37.515041 [THz] =    1251.367086 [cm-1]
     freq (    5) =      37.515041 [THz] =    1251.367086 [cm-1]
     freq (    6) =      39.388701 [THz] =    1313.865635 [cm-1]
 **************************************************************************

     Mode symmetry, C_3v (3m)   point group:

     freq (  1 -  2) =        372.1  [cm-1]   --> E    L_3           
     freq (  3 -  3) =        663.5  [cm-1]   --> A_1  L_1           
     freq (  4 -  5) =       1251.4  [cm-1]   --> E    L_3           
     freq (  6 -  6) =       1313.9  [cm-1]   --> A_1  L_1           

     Calculation of q =    0.5000000  -0.5000000   0.5000000

   Info: using nr1, nr2, nr3 values from input

   Info: using nr1, nr2, nr3 values from input
 
     Parallelization info
     --------------------
     sticks:   dense  smooth     PW     G-vecs:    dense   smooth      PW
     Min           6       6      2                   90       90      19
     Max           7       7      3                   94       94      23
     Sum         499     499    187                 7391     7391    1591
 


     bravais-lattice index     =            2
     lattice parameter (alat)  =       6.7034  a.u.
     unit-cell volume          =      75.3061 (a.u.)^3
     number of atoms/cell      =            2
     number of atomic types    =            1
     number of electrons       =         8.00
     number of Kohn-Sham states=            8
     kinetic-energy cutoff     =      80.0000  Ry
     charge density cutoff     =     320.0000  Ry
     Exchange-correlation      = PZ ( 1  1  0  0 0 0)

     celldm(1)=   6.703426  celldm(2)=   0.000000  celldm(3)=   0.000000
     celldm(4)=   0.000000  celldm(5)=   0.000000  celldm(6)=   0.000000

     crystal axes: (cart. coord. in units of alat)
               a(1) = (  -0.500000   0.000000   0.500000 )  
               a(2) = (   0.000000   0.500000   0.500000 )  
               a(3) = (  -0.500000   0.500000   0.000000 )  

     reciprocal axes: (cart. coord. in units 2 pi/alat)
               b(1) = ( -1.000000 -1.000000  1.000000 )  
               b(2) = (  1.000000  1.000000  1.000000 )  
               b(3) = ( -1.000000  1.000000 -1.000000 )  


     PseudoPot. # 1 for  C read from file:
     ../C.pz-mt.fhi.UPF
     MD5 check sum: b7c38bc33a0cf75f44be89b84470f298
     Pseudo is Norm-conserving, Zval =  4.0
     Generated using FHI98PP, converted with fhi2upf.x v.5.0.2
     Using radial grid of  461 points,  2 beta functions with: 
                l(1) =   0
                l(2) =   1

     atomic species   valence    mass     pseudopotential
        C              4.00    12.01100      C( 1.00)

     24 Sym. Ops. (no inversion) found



   Cartesian axes

     site n.     atom                  positions (alat units)
         1           C   tau(   1) = (   0.0000000   0.0000000   0.0000000  )
         2           C   tau(   2) = (  -0.2500000   0.2500000   0.2500000  )

     number of k points=    26
                       cart. coord. in units 2pi/alat
        k(    1) = (   0.0000000   0.0000000   0.0000000), wk =   0.0312500
        k(    2) = (   0.5000000  -0.5000000   0.5000000), wk =   0.0000000
        k(    3) = (  -0.2500000   0.2500000  -0.2500000), wk =   0.0625000
        k(    4) = (   0.2500000  -0.2500000   0.2500000), wk =   0.0000000
        k(    5) = (   0.5000000  -0.5000000   0.5000000), wk =   0.0312500
        k(    6) = (   1.0000000  -1.0000000   1.0000000), wk =   0.0000000
        k(    7) = (   0.0000000   0.5000000   0.0000000), wk =   0.1875000
        k(    8) = (   0.5000000   0.0000000   0.5000000), wk =   0.0000000
        k(    9) = (   0.7500000  -0.2500000   0.7500000), wk =   0.1875000
        k(   10) = (   1.2500000  -0.7500000   1.2500000), wk =   0.0000000
        k(   11) = (   0.5000000   0.0000000   0.5000000), wk =   0.1875000
        k(   12) = (   1.0000000  -0.5000000   1.0000000), wk =   0.0000000
        k(   13) = (   0.0000000  -1.0000000   0.0000000), wk =   0.0937500
        k(   14) = (   0.5000000  -1.5000000   0.5000000), wk =   0.0000000
        k(   15) = (  -0.5000000  -1.0000000   0.0000000), wk =   0.1875000
        k(   16) = (   0.0000000  -1.5000000   0.5000000), wk =   0.0000000
        k(   17) = (   0.2500000  -0.2500000  -0.2500000), wk =   0.1875000
        k(   18) = (   0.7500000  -0.7500000   0.2500000), wk =   0.0000000
        k(   19) = (  -0.5000000   0.5000000   0.5000000), wk =   0.0937500
        k(   20) = (   0.0000000   0.0000000   1.0000000), wk =   0.0000000
        k(   21) = (  -0.7500000   0.2500000   0.7500000), wk =   0.3750000
        k(   22) = (  -0.2500000  -0.2500000   1.2500000), wk =   0.0000000
        k(   23) = (  -0.7500000   0.7500000   0.2500000), wk =   0.1875000
        k(   24) = (  -0.2500000   0.2500000   0.7500000), wk =   0.0000000
        k(   25) = (  -0.5000000   0.0000000   0.5000000), wk =   0.1875000
        k(   26) = (   0.0000000  -0.5000000   1.0000000), wk =   0.0000000

     Dense  grid:     7391 G-vectors     FFT dimensions: (  27,  27,  27)

     Estimated max dynamical RAM per process >       0.25MB

     Estimated total allocated dynamical RAM >      20.30MB
     Message from routine sym_rho_init:
     some processors have no G-vectors for symmetrization
     Message from routine sym_rho_init:
     some processors have no G-vectors for symmetrization
     Message from routine sym_rho_init:
     some processors have no G-vectors for symmetrization
     Message from routine sym_rho_init:
     some processors have no G-vectors for symmetrization
     Message from routine sym_rho_init:
     some processors have no G-vectors for symmetrization
     Message from routine sym_rho_init:
     some processors have no G-vectors for symmetrization
     Message from routine sym_rho_init:
     some processors have no G-vectors for symmetrization
     Message from routine sym_rho_init:
     some processors have no G-vectors for symmetrization
     Message from routine sym_rho_init:
     some processors have no G-vectors for symmetrization
     Message from routine sym_rho_init:
     some processors have no G-vectors for symmetrization
     Message from routine sym_rho_init:
     some processors have no G-vectors for symmetrization
     Message from routine sym_rho_init:
     some processors have no G-vectors for symmetrization
     Message from routine sym_rho_init:
     some processors have no G-vectors for symmetrization
     Message from routine sym_rho_init:
     some processors have no G-vectors for symmetrization
     Message from routine sym_rho_init:
     some processors have no G-vectors for symmetrization
     Message from routine sym_rho_init:
     some processors have no G-vectors for symmetrization
     Message from routine sym_rho_init:
     some processors have no G-vectors for symmetrization
     Message from routine sym_rho_init:
     some processors have no G-vectors for symmetrization
     Message from routine sym_rho_init:
     some processors have no G-vectors for symmetrization
     Message from routine sym_rho_init:
     some processors have no G-vectors for symmetrization
     Message from routine sym_rho_init:
     some processors have no G-vectors for symmetrization
     Message from routine sym_rho_init:
     some processors have no G-vectors for symmetrization
     Message from routine sym_rho_init:
     some processors have no G-vectors for symmetrization
     Message from routine sym_rho_init:
     some processors have no G-vectors for symmetrization
     Message from routine sym_rho_init:
     some processors have no G-vectors for symmetrization
     Message from routine sym_rho_init:
     some processors have no G-vectors for symmetrization
     Message from routine sym_rho_init:
     some processors have no G-vectors for symmetrization
     Message from routine sym_rho_init:
     some processors have no G-vectors for symmetrization
     Message from routine sym_rho_init:
     some processors have no G-vectors for symmetrization
     Message from routine sym_rho_init:
     some processors have no G-vectors for symmetrization
     Message from routine sym_rho_init:
     some processors have no G-vectors for symmetrization
     Message from routine sym_rho_init:
     some processors have no G-vectors for symmetrization
     Message from routine sym_rho_init:
     some processors have no G-vectors for symmetrization

     The potential is recalculated from file :
     ./_ph0/c.q_3/c.save/charge-density.dat

     Starting wfc are   18 atomic wfcs

     Band Structure Calculation
     Davidson diagonalization with overlap

     ethr =  1.25E-10,  avg # of iterations =  9.2

     total cpu time spent up to now is        2.1 secs

     End of band structure calculation

          k = 0.0000 0.0000 0.0000 (   941 PWs)   bands (ev):

    -8.1914  13.2956  13.2956  13.2956  18.9011  18.9011  18.9011  27.0685

          k = 0.5000-0.5000 0.5000 (   912 PWs)   bands (ev):

    -2.2438  -0.1777  10.4768  10.4768  21.7742  21.7742  22.5143  28.8818

          k =-0.2500 0.2500-0.2500 (   911 PWs)   bands (ev):

    -6.4509   6.7288  11.5371  11.5371  21.1102  21.1102  21.6413  28.0744

          k = 0.2500-0.2500 0.2500 (   911 PWs)   bands (ev):

    -6.4509   6.7288  11.5371  11.5371  21.1102  21.1102  21.6413  28.0744

          k = 0.5000-0.5000 0.5000 (   912 PWs)   bands (ev):

    -2.2438  -0.1777  10.4768  10.4768  21.7742  21.7742  22.5143  28.8818

          k = 1.0000-1.0000 1.0000 (   941 PWs)   bands (ev):

    -8.1914  13.2956  13.2956  13.2956  18.9011  18.9011  18.9011  27.0685

          k = 0.0000 0.5000 0.0000 (   902 PWs)   bands (ev):

    -5.8746   8.9100   9.1342   9.1342  17.7932  23.6240  24.9240  24.9240

          k = 0.5000 0.0000 0.5000 (   907 PWs)   bands (ev):

    -3.6534   4.6802   5.6325  10.2605  21.2872  23.3428  25.7299  27.3667

          k = 0.7500-0.2500 0.7500 (   908 PWs)   bands (ev):

    -2.0667   2.5423   6.5561   8.3747  19.4172  24.7633  26.1506  26.7683

          k = 1.2500-0.7500 1.2500 (   911 PWs)   bands (ev):

    -6.4509   6.7288  11.5371  11.5371  21.1102  21.1102  21.6413  28.0744

          k = 0.5000 0.0000 0.5000 (   907 PWs)   bands (ev):

    -3.6534   4.6802   5.6325  10.2605  21.2872  23.3428  25.7299  27.3667

          k = 1.0000-0.5000 1.0000 (   902 PWs)   bands (ev):

    -5.8746   8.9100   9.1342   9.1342  17.7932  23.6240  24.9240  24.9240

          k = 0.0000-1.0000 0.0000 (   934 PWs)   bands (ev):

     0.6357   0.6357   6.9374   6.9374  18.1025  18.1025  30.1520  30.1520

          k = 0.5000-1.5000 0.5000 (   912 PWs)   bands (ev):

    -2.2438  -0.1777  10.4768  10.4768  21.7742  21.7742  22.5143  28.8818

          k =-0.5000-1.0000 0.0000 (   892 PWs)   bands (ev):

     1.4949   1.4949   4.8450   4.8450  23.8530  23.8530  25.8067  25.8067

          k = 0.0000-1.5000 0.5000 (   907 PWs)   bands (ev):

    -3.6534   4.6802   5.6325  10.2605  21.2872  23.3428  25.7299  27.3667

          k = 0.2500-0.2500-0.2500 (   911 PWs)   bands (ev):

    -6.4509   6.7288  11.5371  11.5371  21.1102  21.1102  21.6413  28.0744

          k = 0.7500-0.7500 0.2500 (   908 PWs)   bands (ev):

    -2.0667   2.5423   6.5561   8.3747  19.4172  24.7633  26.1506  26.7683

          k =-0.5000 0.5000 0.5000 (   912 PWs)   bands (ev):

    -2.2438  -0.1777  10.4768  10.4768  21.7742  21.7742  22.5143  28.8818

          k = 0.0000 0.0000 1.0000 (   934 PWs)   bands (ev):

     0.6357   0.6357   6.9374   6.9374  18.1025  18.1025  30.1520  30.1520

          k =-0.7500 0.2500 0.7500 (   908 PWs)   bands (ev):

    -2.0667   2.5423   6.5561   8.3747  19.4172  24.7633  26.1506  26.7683

          k =-0.2500-0.2500 1.2500 (   908 PWs)   bands (ev):

    -2.0667   2.5423   6.5561   8.3747  19.4172  24.7633  26.1506  26.7683

          k =-0.7500 0.7500 0.2500 (   908 PWs)   bands (ev):

    -2.0667   2.5423   6.5561   8.3747  19.4172  24.7633  26.1506  26.7683

          k =-0.2500 0.2500 0.7500 (   908 PWs)   bands (ev):

    -2.0667   2.5423   6.5561   8.3747  19.4172  24.7633  26.1506  26.7683

          k =-0.5000 0.0000 0.5000 (   907 PWs)   bands (ev):

    -3.6534   4.6802   5.6325  10.2605  21.2872  23.3428  25.7299  27.3667

          k = 0.0000-0.5000 1.0000 (   892 PWs)   bands (ev):

     1.4949   1.4949   4.8450   4.8450  23.8530  23.8530  25.8067  25.8067

     highest occupied, lowest unoccupied level (ev):    13.2956   17.7932

     Writing output data file c.save

                                                                                

     bravais-lattice index     =            2
     lattice parameter (alat)  =       6.7034  a.u.
     unit-cell volume          =      75.3061 (a.u.)^3
     number of atoms/cell      =            2
     number of atomic types    =            1
     kinetic-energy cut-off    =      80.0000  Ry
     charge density cut-off    =     320.0000  Ry
     convergence threshold     =      1.0E-24
     beta                      =       0.7000
     number of iterations used =            4
     Exchange-correlation      = PZ ( 1  1  0  0 0 0)


     celldm(1)=    6.70343  celldm(2)=    0.00000  celldm(3)=    0.00000
     celldm(4)=    0.00000  celldm(5)=    0.00000  celldm(6)=    0.00000

     crystal axes: (cart. coord. in units of alat)
               a(1) = ( -0.5000  0.0000  0.5000 )  
               a(2) = (  0.0000  0.5000  0.5000 )  
               a(3) = ( -0.5000  0.5000  0.0000 )  

     reciprocal axes: (cart. coord. in units 2 pi/alat)
               b(1) = ( -1.0000 -1.0000  1.0000 )  
               b(2) = (  1.0000  1.0000  1.0000 )  
               b(3) = ( -1.0000  1.0000 -1.0000 )  


     Atoms inside the unit cell: 

     Cartesian axes

     site n.  atom      mass           positions (alat units)
        1     C   12.0110   tau(    1) = (    0.00000    0.00000    0.00000  )
        2     C   12.0110   tau(    2) = (   -0.25000    0.25000    0.25000  )

     Computing dynamical matrix for 
                    q = (   0.5000000  -0.5000000   0.5000000 )
 
      7 Sym.Ops. (with q -> -q+G )


     G cutoff =  364.2368  (     93 G-vectors)     FFT grid: ( 27, 27, 27)
     number of k points=    26

     PseudoPot. # 1 for  C read from file:
     ../C.pz-mt.fhi.UPF
     MD5 check sum: b7c38bc33a0cf75f44be89b84470f298
     Pseudo is Norm-conserving, Zval =  4.0
     Generated using FHI98PP, converted with fhi2upf.x v.5.0.2
     Using radial grid of  461 points,  2 beta functions with: 
                l(1) =   0
                l(2) =   1

     Mode symmetry, C_3v (3m)   point group:


     Atomic displacements:
     There are   4 irreducible representations

     Representation     1      1 modes -A_1  L_1  To be done

     Representation     2      1 modes -A_1  L_1  To be done

     Representation     3      2 modes -E    L_3  To be done

     Representation     4      2 modes -E    L_3  To be done



     Alpha used in Ewald sum =   2.8000
     PHONON       :    48.55s CPU        54.88s WALL



     Representation #  1 mode #   1

     Self-consistent Calculation

      iter #   1 total cpu time :    55.1 secs   av.it.:   6.4
      thresh= 1.000E-02 alpha_mix =  0.700 |ddv_scf|^2 =  2.594E-05

      iter #   2 total cpu time :    55.4 secs   av.it.:   9.2
      thresh= 5.093E-04 alpha_mix =  0.700 |ddv_scf|^2 =  2.539E-05

      iter #   3 total cpu time :    55.6 secs   av.it.:   8.8
      thresh= 5.039E-04 alpha_mix =  0.700 |ddv_scf|^2 =  1.030E-07

      iter #   4 total cpu time :    55.6 secs   av.it.:   9.1
      thresh= 3.210E-05 alpha_mix =  0.700 |ddv_scf|^2 =  1.873E-09

      iter #   5 total cpu time :    55.8 secs   av.it.:   9.1
      thresh= 4.327E-06 alpha_mix =  0.700 |ddv_scf|^2 =  5.195E-11

      iter #   6 total cpu time :    55.9 secs   av.it.:   9.3
      thresh= 7.208E-07 alpha_mix =  0.700 |ddv_scf|^2 =  5.655E-13

      iter #   7 total cpu time :    56.0 secs   av.it.:   9.1
      thresh= 7.520E-08 alpha_mix =  0.700 |ddv_scf|^2 =  3.220E-14

      iter #   8 total cpu time :    56.0 secs   av.it.:   9.0
      thresh= 1.794E-08 alpha_mix =  0.700 |ddv_scf|^2 =  6.789E-17

      iter #   9 total cpu time :    56.1 secs   av.it.:   9.3
      thresh= 8.240E-10 alpha_mix =  0.700 |ddv_scf|^2 =  1.874E-18

      iter #  10 total cpu time :    56.2 secs   av.it.:   9.5
      thresh= 1.369E-10 alpha_mix =  0.700 |ddv_scf|^2 =  1.610E-19

      iter #  11 total cpu time :    56.3 secs   av.it.:   9.2
      thresh= 4.012E-11 alpha_mix =  0.700 |ddv_scf|^2 =  2.252E-21

      iter #  12 total cpu time :    56.4 secs   av.it.:   9.2
      thresh= 4.745E-12 alpha_mix =  0.700 |ddv_scf|^2 =  4.771E-22

      iter #  13 total cpu time :    56.5 secs   av.it.:   9.2
      thresh= 2.184E-12 alpha_mix =  0.700 |ddv_scf|^2 =  1.758E-24

      iter #  14 total cpu time :    56.7 secs   av.it.:   9.2
      thresh= 1.326E-13 alpha_mix =  0.700 |ddv_scf|^2 =  2.912E-25

     End of self-consistent calculation

     Convergence has been achieved 


     Representation #  2 mode #   2

     Self-consistent Calculation

      iter #   1 total cpu time :    57.0 secs   av.it.:   6.5
      thresh= 1.000E-02 alpha_mix =  0.700 |ddv_scf|^2 =  2.594E-05

      iter #   2 total cpu time :    57.1 secs   av.it.:   9.2
      thresh= 5.093E-04 alpha_mix =  0.700 |ddv_scf|^2 =  2.539E-05

      iter #   3 total cpu time :    57.2 secs   av.it.:   8.8
      thresh= 5.039E-04 alpha_mix =  0.700 |ddv_scf|^2 =  1.030E-07

      iter #   4 total cpu time :    57.3 secs   av.it.:   9.1
      thresh= 3.209E-05 alpha_mix =  0.700 |ddv_scf|^2 =  1.873E-09

      iter #   5 total cpu time :    57.4 secs   av.it.:   9.1
      thresh= 4.328E-06 alpha_mix =  0.700 |ddv_scf|^2 =  5.195E-11

      iter #   6 total cpu time :    57.5 secs   av.it.:   9.3
      thresh= 7.208E-07 alpha_mix =  0.700 |ddv_scf|^2 =  5.668E-13

      iter #   7 total cpu time :    57.6 secs   av.it.:   9.1
      thresh= 7.528E-08 alpha_mix =  0.700 |ddv_scf|^2 =  3.217E-14

      iter #   8 total cpu time :    57.7 secs   av.it.:   9.0
      thresh= 1.794E-08 alpha_mix =  0.700 |ddv_scf|^2 =  6.732E-17

      iter #   9 total cpu time :    57.8 secs   av.it.:   9.3
      thresh= 8.205E-10 alpha_mix =  0.700 |ddv_scf|^2 =  1.863E-18

      iter #  10 total cpu time :    57.9 secs   av.it.:   9.6
      thresh= 1.365E-10 alpha_mix =  0.700 |ddv_scf|^2 =  1.603E-19

      iter #  11 total cpu time :    58.0 secs   av.it.:   9.2
      thresh= 4.004E-11 alpha_mix =  0.700 |ddv_scf|^2 =  2.174E-21

      iter #  12 total cpu time :    58.1 secs   av.it.:   9.2
      thresh= 4.663E-12 alpha_mix =  0.700 |ddv_scf|^2 =  4.718E-22

      iter #  13 total cpu time :    58.2 secs   av.it.:   9.2
      thresh= 2.172E-12 alpha_mix =  0.700 |ddv_scf|^2 =  1.776E-24

      iter #  14 total cpu time :    58.5 secs   av.it.:   9.3
      thresh= 1.332E-13 alpha_mix =  0.700 |ddv_scf|^2 =  2.978E-25

     End of self-consistent calculation

     Convergence has been achieved 


     Representation #  3 modes #   3  4

     Self-consistent Calculation

      iter #   1 total cpu time :    59.5 secs   av.it.:   6.2
      thresh= 1.000E-02 alpha_mix =  0.700 |ddv_scf|^2 =  1.278E-07

      iter #   2 total cpu time :    60.3 secs   av.it.:  10.3
      thresh= 3.576E-05 alpha_mix =  0.700 |ddv_scf|^2 =  2.760E-10

      iter #   3 total cpu time :    60.5 secs   av.it.:  10.1
      thresh= 1.661E-06 alpha_mix =  0.700 |ddv_scf|^2 =  7.313E-12

      iter #   4 total cpu time :    60.8 secs   av.it.:   9.7
      thresh= 2.704E-07 alpha_mix =  0.700 |ddv_scf|^2 =  2.393E-13

      iter #   5 total cpu time :    61.0 secs   av.it.:   9.7
      thresh= 4.891E-08 alpha_mix =  0.700 |ddv_scf|^2 =  9.322E-16

      iter #   6 total cpu time :    61.2 secs   av.it.:  10.2
      thresh= 3.053E-09 alpha_mix =  0.700 |ddv_scf|^2 =  9.760E-19

      iter #   7 total cpu time :    61.4 secs   av.it.:  10.3
      thresh= 9.879E-11 alpha_mix =  0.700 |ddv_scf|^2 =  5.967E-20

      iter #   8 total cpu time :    61.6 secs   av.it.:  10.4
      thresh= 2.443E-11 alpha_mix =  0.700 |ddv_scf|^2 =  1.349E-22

      iter #   9 total cpu time :    61.9 secs   av.it.:  10.2
      thresh= 1.162E-12 alpha_mix =  0.700 |ddv_scf|^2 =  8.835E-25

     End of self-consistent calculation

     Convergence has been achieved 


     Representation #  4 modes #   5  6

     Self-consistent Calculation

      iter #   1 total cpu time :    62.3 secs   av.it.:   6.3
      thresh= 1.000E-02 alpha_mix =  0.700 |ddv_scf|^2 =  1.279E-07

      iter #   2 total cpu time :    62.6 secs   av.it.:  10.5
      thresh= 3.576E-05 alpha_mix =  0.700 |ddv_scf|^2 =  2.772E-10

      iter #   3 total cpu time :    62.8 secs   av.it.:  10.3
      thresh= 1.665E-06 alpha_mix =  0.700 |ddv_scf|^2 =  7.310E-12

      iter #   4 total cpu time :    63.0 secs   av.it.:  10.0
      thresh= 2.704E-07 alpha_mix =  0.700 |ddv_scf|^2 =  2.396E-13

      iter #   5 total cpu time :    63.2 secs   av.it.:  10.0
      thresh= 4.894E-08 alpha_mix =  0.700 |ddv_scf|^2 =  9.292E-16

      iter #   6 total cpu time :    63.9 secs   av.it.:  10.4
      thresh= 3.048E-09 alpha_mix =  0.700 |ddv_scf|^2 =  9.713E-19

      iter #   7 total cpu time :    64.3 secs   av.it.:  10.6
      thresh= 9.856E-11 alpha_mix =  0.700 |ddv_scf|^2 =  5.959E-20

      iter #   8 total cpu time :    65.1 secs   av.it.:  10.8
      thresh= 2.441E-11 alpha_mix =  0.700 |ddv_scf|^2 =  1.346E-22

      iter #   9 total cpu time :    66.8 secs   av.it.:  10.3
      thresh= 1.160E-12 alpha_mix =  0.700 |ddv_scf|^2 =  8.122E-25

     End of self-consistent calculation

     Convergence has been achieved 
 
     Number of q in the star =    4
     List of q in the star:
          1   0.500000000  -0.500000000   0.500000000
          2  -0.500000000   0.500000000   0.500000000
          3   0.500000000   0.500000000  -0.500000000
          4  -0.500000000  -0.500000000  -0.500000000

     Diagonalizing the dynamical matrix

     q = (    0.500000000  -0.500000000   0.500000000 ) 

 **************************************************************************
     freq (    1) =      15.676736 [THz] =     522.919615 [cm-1]
     freq (    2) =      15.676736 [THz] =     522.919615 [cm-1]
     freq (    3) =      30.509085 [THz] =    1017.673518 [cm-1]
     freq (    4) =      36.127405 [THz] =    1205.080519 [cm-1]
     freq (    5) =      36.127405 [THz] =    1205.080519 [cm-1]
     freq (    6) =      37.613611 [THz] =    1254.655011 [cm-1]
 **************************************************************************

     Mode symmetry, C_3v (3m)   point group:

     freq (  1 -  2) =        522.9  [cm-1]   --> E    L_3           
     freq (  3 -  3) =       1017.7  [cm-1]   --> A_1  L_1           
     freq (  4 -  5) =       1205.1  [cm-1]   --> E    L_3           
     freq (  6 -  6) =       1254.7  [cm-1]   --> A_1  L_1           

     Calculation of q =    0.0000000   0.5000000   0.0000000

   Info: using nr1, nr2, nr3 values from input

   Info: using nr1, nr2, nr3 values from input
 
     Parallelization info
     --------------------
     sticks:   dense  smooth     PW     G-vecs:    dense   smooth      PW
     Min           6       6      2                   90       90      16
     Max           7       7      3                   94       94      19
     Sum         499     499    163                 7391     7391    1411
 


     bravais-lattice index     =            2
     lattice parameter (alat)  =       6.7034  a.u.
     unit-cell volume          =      75.3061 (a.u.)^3
     number of atoms/cell      =            2
     number of atomic types    =            1
     number of electrons       =         8.00
     number of Kohn-Sham states=            8
     kinetic-energy cutoff     =      80.0000  Ry
     charge density cutoff     =     320.0000  Ry
     Exchange-correlation      = PZ ( 1  1  0  0 0 0)

     celldm(1)=   6.703426  celldm(2)=   0.000000  celldm(3)=   0.000000
     celldm(4)=   0.000000  celldm(5)=   0.000000  celldm(6)=   0.000000

     crystal axes: (cart. coord. in units of alat)
               a(1) = (  -0.500000   0.000000   0.500000 )  
               a(2) = (   0.000000   0.500000   0.500000 )  
               a(3) = (  -0.500000   0.500000   0.000000 )  

     reciprocal axes: (cart. coord. in units 2 pi/alat)
               b(1) = ( -1.000000 -1.000000  1.000000 )  
               b(2) = (  1.000000  1.000000  1.000000 )  
               b(3) = ( -1.000000  1.000000 -1.000000 )  


     PseudoPot. # 1 for  C read from file:
     ../C.pz-mt.fhi.UPF
     MD5 check sum: b7c38bc33a0cf75f44be89b84470f298
     Pseudo is Norm-conserving, Zval =  4.0
     Generated using FHI98PP, converted with fhi2upf.x v.5.0.2
     Using radial grid of  461 points,  2 beta functions with: 
                l(1) =   0
                l(2) =   1

     atomic species   valence    mass     pseudopotential
        C              4.00    12.01100      C( 1.00)

     24 Sym. Ops. (no inversion) found



   Cartesian axes

     site n.     atom                  positions (alat units)
         1           C   tau(   1) = (   0.0000000   0.0000000   0.0000000  )
         2           C   tau(   2) = (  -0.2500000   0.2500000   0.2500000  )

     number of k points=    52
                       cart. coord. in units 2pi/alat
        k(    1) = (   0.0000000   0.0000000   0.0000000), wk =   0.0312500
        k(    2) = (   0.0000000   0.5000000   0.0000000), wk =   0.0000000
        k(    3) = (  -0.2500000   0.2500000  -0.2500000), wk =   0.0625000
        k(    4) = (  -0.2500000   0.7500000  -0.2500000), wk =   0.0000000
        k(    5) = (   0.5000000  -0.5000000   0.5000000), wk =   0.0625000
        k(    6) = (   0.5000000   0.0000000   0.5000000), wk =   0.0000000
        k(    7) = (   0.0000000   0.5000000   0.0000000), wk =   0.0312500
        k(    8) = (   0.0000000   1.0000000   0.0000000), wk =   0.0000000
        k(    9) = (   0.7500000  -0.2500000   0.7500000), wk =   0.0625000
        k(   10) = (   0.7500000   0.2500000   0.7500000), wk =   0.0000000
        k(   11) = (   0.5000000   0.0000000   0.5000000), wk =   0.0625000
        k(   12) = (   0.5000000   0.5000000   0.5000000), wk =   0.0000000
        k(   13) = (   0.0000000  -1.0000000   0.0000000), wk =   0.0312500
        k(   14) = (   0.0000000  -0.5000000   0.0000000), wk =   0.0000000
        k(   15) = (  -0.5000000  -1.0000000   0.0000000), wk =   0.1250000
        k(   16) = (  -0.5000000  -0.5000000   0.0000000), wk =   0.0000000
        k(   17) = (   0.2500000  -0.2500000  -0.2500000), wk =   0.0625000
        k(   18) = (   0.2500000   0.2500000  -0.2500000), wk =   0.0000000
        k(   19) = (   0.2500000  -0.2500000   0.2500000), wk =   0.0625000
        k(   20) = (   0.2500000   0.2500000   0.2500000), wk =   0.0000000
        k(   21) = (  -0.2500000   0.2500000   0.2500000), wk =   0.0625000
        k(   22) = (  -0.2500000   0.7500000   0.2500000), wk =   0.0000000
        k(   23) = (  -0.5000000   0.5000000   0.5000000), wk =   0.0625000
        k(   24) = (  -0.5000000   1.0000000   0.5000000), wk =   0.0000000
        k(   25) = (  -0.5000000   0.0000000   0.0000000), wk =   0.1250000
        k(   26) = (  -0.5000000   0.5000000   0.0000000), wk =   0.0000000
        k(   27) = (   0.0000000  -0.5000000   0.0000000), wk =   0.0312500
        k(   28) = (   0.0000000   0.0000000   0.0000000), wk =   0.0000000
        k(   29) = (   0.2500000  -0.7500000   0.7500000), wk =   0.1250000
        k(   30) = (   0.2500000  -0.2500000   0.7500000), wk =   0.0000000
        k(   31) = (  -0.7500000   0.2500000   0.7500000), wk =   0.0625000
        k(   32) = (  -0.7500000   0.7500000   0.7500000), wk =   0.0000000
        k(   33) = (   0.7500000   0.7500000  -0.2500000), wk =   0.1250000
        k(   34) = (   0.7500000   1.2500000  -0.2500000), wk =   0.0000000
        k(   35) = (  -0.7500000   0.2500000  -0.7500000), wk =   0.0625000
        k(   36) = (  -0.7500000   0.7500000  -0.7500000), wk =   0.0000000
        k(   37) = (   0.7500000  -0.2500000  -0.7500000), wk =   0.0625000
        k(   38) = (   0.7500000   0.2500000  -0.7500000), wk =   0.0000000
        k(   39) = (  -0.7500000   0.7500000  -0.2500000), wk =   0.1250000
        k(   40) = (  -0.7500000   1.2500000  -0.2500000), wk =   0.0000000
        k(   41) = (  -0.7500000  -0.7500000   0.2500000), wk =   0.1250000
        k(   42) = (  -0.7500000  -0.2500000   0.2500000), wk =   0.0000000
        k(   43) = (   0.0000000  -0.5000000   0.5000000), wk =   0.1250000
        k(   44) = (   0.0000000   0.0000000   0.5000000), wk =   0.0000000
        k(   45) = (  -0.5000000   0.0000000   0.5000000), wk =   0.0625000
        k(   46) = (  -0.5000000   0.5000000   0.5000000), wk =   0.0000000
        k(   47) = (   0.5000000   0.5000000   0.0000000), wk =   0.1250000
        k(   48) = (   0.5000000   1.0000000   0.0000000), wk =   0.0000000
        k(   49) = (   1.0000000   0.0000000   0.0000000), wk =   0.0625000
        k(   50) = (   1.0000000   0.5000000   0.0000000), wk =   0.0000000
        k(   51) = (   1.0000000   0.5000000   0.0000000), wk =   0.0625000
        k(   52) = (   1.0000000   1.0000000   0.0000000), wk =   0.0000000

     Dense  grid:     7391 G-vectors     FFT dimensions: (  27,  27,  27)

     Estimated max dynamical RAM per process >       0.25MB

     Estimated total allocated dynamical RAM >      20.30MB
     Message from routine sym_rho_init:
     some processors have no G-vectors for symmetrization
     Message from routine sym_rho_init:
     some processors have no G-vectors for symmetrization
     Message from routine sym_rho_init:
     some processors have no G-vectors for symmetrization
     Message from routine sym_rho_init:
     some processors have no G-vectors for symmetrization
     Message from routine sym_rho_init:
     some processors have no G-vectors for symmetrization
     Message from routine sym_rho_init:
     some processors have no G-vectors for symmetrization
     Message from routine sym_rho_init:
     some processors have no G-vectors for symmetrization
     Message from routine sym_rho_init:
     some processors have no G-vectors for symmetrization
     Message from routine sym_rho_init:
     some processors have no G-vectors for symmetrization
     Message from routine sym_rho_init:
     some processors have no G-vectors for symmetrization
     Message from routine sym_rho_init:
     some processors have no G-vectors for symmetrization
     Message from routine sym_rho_init:
     some processors have no G-vectors for symmetrization
     Message from routine sym_rho_init:
     some processors have no G-vectors for symmetrization
     Message from routine sym_rho_init:
     some processors have no G-vectors for symmetrization
     Message from routine sym_rho_init:
     some processors have no G-vectors for symmetrization
     Message from routine sym_rho_init:
     some processors have no G-vectors for symmetrization
     Message from routine sym_rho_init:
     some processors have no G-vectors for symmetrization
     Message from routine sym_rho_init:
     some processors have no G-vectors for symmetrization
     Message from routine sym_rho_init:
     some processors have no G-vectors for symmetrization
     Message from routine sym_rho_init:
     some processors have no G-vectors for symmetrization
     Message from routine sym_rho_init:
     some processors have no G-vectors for symmetrization
     Message from routine sym_rho_init:
     some processors have no G-vectors for symmetrization
     Message from routine sym_rho_init:
     some processors have no G-vectors for symmetrization
     Message from routine sym_rho_init:
     some processors have no G-vectors for symmetrization
     Message from routine sym_rho_init:
     some processors have no G-vectors for symmetrization
     Message from routine sym_rho_init:
     some processors have no G-vectors for symmetrization
     Message from routine sym_rho_init:
     some processors have no G-vectors for symmetrization
     Message from routine sym_rho_init:
     some processors have no G-vectors for symmetrization
     Message from routine sym_rho_init:
     some processors have no G-vectors for symmetrization
     Message from routine sym_rho_init:
     some processors have no G-vectors for symmetrization
     Message from routine sym_rho_init:
     some processors have no G-vectors for symmetrization
     Message from routine sym_rho_init:
     some processors have no G-vectors for symmetrization
     Message from routine sym_rho_init:
     some processors have no G-vectors for symmetrization
     Message from routine sym_rho_init:
     some processors have no G-vectors for symmetrization
     Message from routine sym_rho_init:
     some processors have no G-vectors for symmetrization
     Message from routine sym_rho_init:
     some processors have no G-vectors for symmetrization
     Message from routine sym_rho_init:
     some processors have no G-vectors for symmetrization
     Message from routine sym_rho_init:
     some processors have no G-vectors for symmetrization
     Message from routine sym_rho_init:
     some processors have no G-vectors for symmetrization
     Message from routine sym_rho_init:
     some processors have no G-vectors for symmetrization
     Message from routine sym_rho_init:
     some processors have no G-vectors for symmetrization
     Message from routine sym_rho_init:
     some processors have no G-vectors for symmetrization

     The potential is recalculated from file :
     ./_ph0/c.q_4/c.save/charge-density.dat

     Starting wfc are   18 atomic wfcs

     Band Structure Calculation
     Davidson diagonalization with overlap

     ethr =  1.25E-10,  avg # of iterations =  9.4

     total cpu time spent up to now is        3.3 secs

     End of band structure calculation

          k = 0.0000 0.0000 0.0000 (   941 PWs)   bands (ev):

    -8.1914  13.2956  13.2956  13.2956  18.9011  18.9011  18.9011  27.0685

          k = 0.0000 0.5000 0.0000 (   902 PWs)   bands (ev):

    -5.8746   8.9100   9.1342   9.1342  17.7932  23.6240  24.9240  24.9240

          k =-0.2500 0.2500-0.2500 (   911 PWs)   bands (ev):

    -6.4509   6.7288  11.5371  11.5371  21.1102  21.1102  21.6413  28.0744

          k =-0.2500 0.7500-0.2500 (   908 PWs)   bands (ev):

    -2.0667   2.5423   6.5561   8.3747  19.4172  24.7633  26.1506  26.7683

          k = 0.5000-0.5000 0.5000 (   912 PWs)   bands (ev):

    -2.2438  -0.1777  10.4768  10.4768  21.7742  21.7742  22.5143  28.8818

          k = 0.5000 0.0000 0.5000 (   907 PWs)   bands (ev):

    -3.6534   4.6802   5.6325  10.2605  21.2872  23.3428  25.7299  27.3667

          k = 0.0000 0.5000 0.0000 (   902 PWs)   bands (ev):

    -5.8746   8.9100   9.1342   9.1342  17.7932  23.6240  24.9240  24.9240

          k = 0.0000 1.0000 0.0000 (   934 PWs)   bands (ev):

     0.6357   0.6357   6.9374   6.9374  18.1025  18.1025  30.1520  30.1520

          k = 0.7500-0.2500 0.7500 (   908 PWs)   bands (ev):

    -2.0667   2.5423   6.5561   8.3747  19.4172  24.7633  26.1506  26.7683

          k = 0.7500 0.2500 0.7500 (   908 PWs)   bands (ev):

    -2.0667   2.5423   6.5561   8.3747  19.4172  24.7633  26.1506  26.7683

          k = 0.5000 0.0000 0.5000 (   907 PWs)   bands (ev):

    -3.6534   4.6802   5.6325  10.2605  21.2872  23.3428  25.7299  27.3667

          k = 0.5000 0.5000 0.5000 (   912 PWs)   bands (ev):

    -2.2438  -0.1777  10.4768  10.4768  21.7742  21.7742  22.5143  28.8818

          k = 0.0000-1.0000 0.0000 (   934 PWs)   bands (ev):

     0.6357   0.6357   6.9374   6.9374  18.1025  18.1025  30.1520  30.1520

          k = 0.0000-0.5000 0.0000 (   902 PWs)   bands (ev):

    -5.8746   8.9100   9.1342   9.1342  17.7932  23.6240  24.9240  24.9240

          k =-0.5000-1.0000 0.0000 (   892 PWs)   bands (ev):

     1.4949   1.4949   4.8450   4.8450  23.8530  23.8530  25.8067  25.8067

          k =-0.5000-0.5000 0.0000 (   907 PWs)   bands (ev):

    -3.6534   4.6802   5.6325  10.2605  21.2872  23.3428  25.7299  27.3667

          k = 0.2500-0.2500-0.2500 (   911 PWs)   bands (ev):

    -6.4509   6.7288  11.5371  11.5371  21.1102  21.1102  21.6413  28.0744

          k = 0.2500 0.2500-0.2500 (   911 PWs)   bands (ev):

    -6.4509   6.7288  11.5371  11.5371  21.1102  21.1102  21.6413  28.0744

          k = 0.2500-0.2500 0.2500 (   911 PWs)   bands (ev):

    -6.4509   6.7288  11.5371  11.5371  21.1102  21.1102  21.6413  28.0744

          k = 0.2500 0.2500 0.2500 (   911 PWs)   bands (ev):

    -6.4509   6.7288  11.5371  11.5371  21.1102  21.1102  21.6413  28.0744

          k =-0.2500 0.2500 0.2500 (   911 PWs)   bands (ev):

    -6.4509   6.7288  11.5371  11.5371  21.1102  21.1102  21.6413  28.0744

          k =-0.2500 0.7500 0.2500 (   908 PWs)   bands (ev):

    -2.0667   2.5423   6.5561   8.3747  19.4172  24.7633  26.1506  26.7683

          k =-0.5000 0.5000 0.5000 (   912 PWs)   bands (ev):

    -2.2438  -0.1777  10.4768  10.4768  21.7742  21.7742  22.5143  28.8818

          k =-0.5000 1.0000 0.5000 (   907 PWs)   bands (ev):

    -3.6534   4.6802   5.6325  10.2605  21.2872  23.3428  25.7299  27.3667

          k =-0.5000 0.0000 0.0000 (   902 PWs)   bands (ev):

    -5.8746   8.9100   9.1342   9.1342  17.7932  23.6240  24.9240  24.9240

          k =-0.5000 0.5000 0.0000 (   907 PWs)   bands (ev):

    -3.6534   4.6802   5.6325  10.2605  21.2872  23.3428  25.7299  27.3667

          k = 0.0000-0.5000 0.0000 (   902 PWs)   bands (ev):

    -5.8746   8.9100   9.1342   9.1342  17.7932  23.6240  24.9240  24.9240

          k = 0.0000 0.0000 0.0000 (   941 PWs)   bands (ev):

    -8.1914  13.2956  13.2956  13.2956  18.9011  18.9011  18.9011  27.0685

          k = 0.2500-0.7500 0.7500 (   908 PWs)   bands (ev):

    -2.0667   2.5423   6.5561   8.3747  19.4172  24.7633  26.1506  26.7683

          k = 0.2500-0.2500 0.7500 (   908 PWs)   bands (ev):

    -2.0667   2.5423   6.5561   8.3747  19.4172  24.7633  26.1506  26.7683

          k =-0.7500 0.2500 0.7500 (   908 PWs)   bands (ev):

    -2.0667   2.5423   6.5561   8.3747  19.4172  24.7633  26.1506  26.7683

          k =-0.7500 0.7500 0.7500 (   911 PWs)   bands (ev):

    -6.4509   6.7288  11.5371  11.5371  21.1102  21.1102  21.6413  28.0744

          k = 0.7500 0.7500-0.2500 (   908 PWs)   bands (ev):

    -2.0667   2.5423   6.5561   8.3747  19.4172  24.7633  26.1506  26.7683

          k = 0.7500 1.2500-0.2500 (   908 PWs)   bands (ev):

    -2.0667   2.5423   6.5561   8.3747  19.4172  24.7633  26.1506  26.7683

          k =-0.7500 0.2500-0.7500 (   908 PWs)   bands (ev):

    -2.0667   2.5423   6.5561   8.3747  19.4172  24.7633  26.1506  26.7683

          k =-0.7500 0.7500-0.7500 (   911 PWs)   bands (ev):

    -6.4509   6.7288  11.5371  11.5371  21.1102  21.1102  21.6413  28.0744

          k = 0.7500-0.2500-0.7500 (   908 PWs)   bands (ev):

    -2.0667   2.5423   6.5561   8.3747  19.4172  24.7633  26.1506  26.7683

          k = 0.7500 0.2500-0.7500 (   908 PWs)   bands (ev):

    -2.0667   2.5423   6.5561   8.3747  19.4172  24.7633  26.1506  26.7683

          k =-0.7500 0.7500-0.2500 (   908 PWs)   bands (ev):

    -2.0667   2.5423   6.5561   8.3747  19.4172  24.7633  26.1506  26.7683

          k =-0.7500 1.2500-0.2500 (   908 PWs)   bands (ev):

    -2.0667   2.5423   6.5561   8.3747  19.4172  24.7633  26.1506  26.7683

          k =-0.7500-0.7500 0.2500 (   908 PWs)   bands (ev):

    -2.0667   2.5423   6.5561   8.3747  19.4172  24.7633  26.1506  26.7683

          k =-0.7500-0.2500 0.2500 (   908 PWs)   bands (ev):

    -2.0667   2.5423   6.5561   8.3747  19.4172  24.7633  26.1506  26.7683

          k = 0.0000-0.5000 0.5000 (   907 PWs)   bands (ev):

    -3.6534   4.6802   5.6325  10.2605  21.2872  23.3428  25.7299  27.3667

          k = 0.0000 0.0000 0.5000 (   902 PWs)   bands (ev):

    -5.8746   8.9100   9.1342   9.1342  17.7932  23.6240  24.9240  24.9240

          k =-0.5000 0.0000 0.5000 (   907 PWs)   bands (ev):

    -3.6534   4.6802   5.6325  10.2605  21.2872  23.3428  25.7299  27.3667

          k =-0.5000 0.5000 0.5000 (   912 PWs)   bands (ev):

    -2.2438  -0.1777  10.4768  10.4768  21.7742  21.7742  22.5143  28.8818

          k = 0.5000 0.5000 0.0000 (   907 PWs)   bands (ev):

    -3.6534   4.6802   5.6325  10.2605  21.2872  23.3428  25.7299  27.3667

          k = 0.5000 1.0000 0.0000 (   892 PWs)   bands (ev):

     1.4949   1.4949   4.8450   4.8450  23.8530  23.8530  25.8067  25.8067

          k = 1.0000 0.0000 0.0000 (   934 PWs)   bands (ev):

     0.6357   0.6357   6.9374   6.9374  18.1025  18.1025  30.1520  30.1520

          k = 1.0000 0.5000 0.0000 (   892 PWs)   bands (ev):

     1.4949   1.4949   4.8450   4.8450  23.8530  23.8530  25.8067  25.8067

          k = 1.0000 0.5000 0.0000 (   892 PWs)   bands (ev):

     1.4949   1.4949   4.8450   4.8450  23.8530  23.8530  25.8067  25.8067

          k = 1.0000 1.0000 0.0000 (   934 PWs)   bands (ev):

     0.6357   0.6357   6.9374   6.9374  18.1025  18.1025  30.1520  30.1520

     highest occupied, lowest unoccupied level (ev):    13.2956   17.7932

     Writing output data file c.save

                                                                                

     bravais-lattice index     =            2
     lattice parameter (alat)  =       6.7034  a.u.
[...]

    -3.6534   4.6802   5.6325  10.2605  21.2872  23.3428  25.7299  27.3667

          k =-0.5000-0.5000 0.5000 (   912 PWs)   bands (ev):

    -2.2438  -0.1777  10.4768  10.4768  21.7742  21.7742  22.5143  28.8818

          k =-1.0000 0.0000 0.0000 (   934 PWs)   bands (ev):

     0.6357   0.6357   6.9374   6.9374  18.1025  18.1025  30.1520  30.1520

          k =-1.5000-1.0000 0.0000 (   892 PWs)   bands (ev):

     1.4949   1.4949   4.8450   4.8450  23.8530  23.8530  25.8067  25.8067

          k = 0.0000 1.0000-0.5000 (   892 PWs)   bands (ev):

     1.4949   1.4949   4.8450   4.8450  23.8530  23.8530  25.8067  25.8067

          k =-0.5000 0.0000-0.5000 (   907 PWs)   bands (ev):

    -3.6534   4.6802   5.6325  10.2605  21.2872  23.3428  25.7299  27.3667

          k = 0.5000 1.0000 0.0000 (   892 PWs)   bands (ev):

     1.4949   1.4949   4.8450   4.8450  23.8530  23.8530  25.8067  25.8067

          k = 0.0000 0.0000 0.0000 (   941 PWs)   bands (ev):

    -8.1914  13.2956  13.2956  13.2956  18.9011  18.9011  18.9011  27.0685

     highest occupied, lowest unoccupied level (ev):    13.2956   17.7932

     Writing output data file c.save

                                                                                

     bravais-lattice index     =            2
     lattice parameter (alat)  =       6.7034  a.u.
     unit-cell volume          =      75.3061 (a.u.)^3
     number of atoms/cell      =            2
     number of atomic types    =            1
     kinetic-energy cut-off    =      80.0000  Ry
     charge density cut-off    =     320.0000  Ry
     convergence threshold     =      1.0E-24
     beta                      =       0.7000
     number of iterations used =            4
     Exchange-correlation      = PZ ( 1  1  0  0 0 0)


     celldm(1)=    6.70343  celldm(2)=    0.00000  celldm(3)=    0.00000
     celldm(4)=    0.00000  celldm(5)=    0.00000  celldm(6)=    0.00000

     crystal axes: (cart. coord. in units of alat)
               a(1) = ( -0.5000  0.0000  0.5000 )  
               a(2) = (  0.0000  0.5000  0.5000 )  
               a(3) = ( -0.5000  0.5000  0.0000 )  

     reciprocal axes: (cart. coord. in units 2 pi/alat)
               b(1) = ( -1.0000 -1.0000  1.0000 )  
               b(2) = (  1.0000  1.0000  1.0000 )  
               b(3) = ( -1.0000  1.0000 -1.0000 )  


     Atoms inside the unit cell: 

     Cartesian axes

     site n.  atom      mass           positions (alat units)
        1     C   12.0110   tau(    1) = (    0.00000    0.00000    0.00000  )
        2     C   12.0110   tau(    2) = (   -0.25000    0.25000    0.25000  )

     Computing dynamical matrix for 
                    q = (  -0.5000000  -1.0000000   0.0000000 )
 
      4 Sym.Ops. (no q -> -q+G )


     G cutoff =  364.2368  (     91 G-vectors)     FFT grid: ( 27, 27, 27)
     number of k points=    40

     PseudoPot. # 1 for  C read from file:
     ../C.pz-mt.fhi.UPF
     MD5 check sum: b7c38bc33a0cf75f44be89b84470f298
     Pseudo is Norm-conserving, Zval =  4.0
     Generated using FHI98PP, converted with fhi2upf.x v.5.0.2
     Using radial grid of  461 points,  2 beta functions with: 
                l(1) =   0
                l(2) =   1

     Mode symmetry, S_4 (-4)    point group:


     Atomic displacements:
     There are   6 irreducible representations

     Representation     1      1 modes -A    W_1  To be done

     Representation     2      1 modes -B    W_3  To be done

     Representation     3      1 modes -B    W_3  To be done

     Representation     4      1 modes -E    W_4  To be done

     Representation     5      1 modes -E*   W_2  To be done

     Representation     6      1 modes -E*   W_2  To be done



     Alpha used in Ewald sum =   2.8000
     PHONON       :  4m28.18s CPU     4m51.38s WALL



     Representation #  1 mode #   1

     Self-consistent Calculation

      iter #   1 total cpu time :   291.7 secs   av.it.:   6.5
      thresh= 1.000E-02 alpha_mix =  0.700 |ddv_scf|^2 =  6.556E-06

      iter #   2 total cpu time :   294.6 secs   av.it.:   9.4
      thresh= 2.560E-04 alpha_mix =  0.700 |ddv_scf|^2 =  3.706E-06

      iter #   3 total cpu time :   297.0 secs   av.it.:   9.2
      thresh= 1.925E-04 alpha_mix =  0.700 |ddv_scf|^2 =  1.447E-08

      iter #   4 total cpu time :   297.6 secs   av.it.:   9.1
      thresh= 1.203E-05 alpha_mix =  0.700 |ddv_scf|^2 =  1.425E-11

      iter #   5 total cpu time :   298.4 secs   av.it.:   9.1
      thresh= 3.774E-07 alpha_mix =  0.700 |ddv_scf|^2 =  5.838E-14

      iter #   6 total cpu time :   298.6 secs   av.it.:   9.1
      thresh= 2.416E-08 alpha_mix =  0.700 |ddv_scf|^2 =  1.642E-15

      iter #   7 total cpu time :   298.8 secs   av.it.:   9.2
      thresh= 4.052E-09 alpha_mix =  0.700 |ddv_scf|^2 =  4.931E-18

      iter #   8 total cpu time :   298.9 secs   av.it.:   9.3
      thresh= 2.221E-10 alpha_mix =  0.700 |ddv_scf|^2 =  7.090E-21

      iter #   9 total cpu time :   299.0 secs   av.it.:   9.4
      thresh= 8.420E-12 alpha_mix =  0.700 |ddv_scf|^2 =  1.538E-21

      iter #  10 total cpu time :   299.2 secs   av.it.:   9.4
      thresh= 3.922E-12 alpha_mix =  0.700 |ddv_scf|^2 =  1.946E-22

      iter #  11 total cpu time :   299.3 secs   av.it.:   9.3
      thresh= 1.395E-12 alpha_mix =  0.700 |ddv_scf|^2 =  1.172E-23

      iter #  12 total cpu time :   299.7 secs   av.it.:   9.3
      thresh= 3.424E-13 alpha_mix =  0.700 |ddv_scf|^2 =  6.330E-26

     End of self-consistent calculation

     Convergence has been achieved 


     Representation #  2 mode #   2

     Self-consistent Calculation

      iter #   1 total cpu time :   299.9 secs   av.it.:   6.3
      thresh= 1.000E-02 alpha_mix =  0.700 |ddv_scf|^2 =  3.692E-06

      iter #   2 total cpu time :   300.1 secs   av.it.:   9.5
      thresh= 1.922E-04 alpha_mix =  0.700 |ddv_scf|^2 =  3.921E-07

      iter #   3 total cpu time :   300.3 secs   av.it.:   9.2
      thresh= 6.261E-05 alpha_mix =  0.700 |ddv_scf|^2 =  8.358E-11

      iter #   4 total cpu time :   300.4 secs   av.it.:   9.5
      thresh= 9.142E-07 alpha_mix =  0.700 |ddv_scf|^2 =  1.109E-12

      iter #   5 total cpu time :   300.5 secs   av.it.:   8.6
      thresh= 1.053E-07 alpha_mix =  0.700 |ddv_scf|^2 =  1.635E-14

      iter #   6 total cpu time :   300.7 secs   av.it.:   9.2
      thresh= 1.279E-08 alpha_mix =  0.700 |ddv_scf|^2 =  1.948E-17

      iter #   7 total cpu time :   300.8 secs   av.it.:   9.7
      thresh= 4.413E-10 alpha_mix =  0.700 |ddv_scf|^2 =  4.664E-19

      iter #   8 total cpu time :   300.9 secs   av.it.:   9.5
      thresh= 6.829E-11 alpha_mix =  0.700 |ddv_scf|^2 =  5.784E-21

      iter #   9 total cpu time :   301.1 secs   av.it.:   9.4
      thresh= 7.605E-12 alpha_mix =  0.700 |ddv_scf|^2 =  2.196E-22

      iter #  10 total cpu time :   301.2 secs   av.it.:   9.5
      thresh= 1.482E-12 alpha_mix =  0.700 |ddv_scf|^2 =  1.349E-23

      iter #  11 total cpu time :   301.5 secs   av.it.:   9.6
      thresh= 3.674E-13 alpha_mix =  0.700 |ddv_scf|^2 =  7.495E-26

     End of self-consistent calculation

     Convergence has been achieved 


     Representation #  3 mode #   3

     Self-consistent Calculation

      iter #   1 total cpu time :   301.8 secs   av.it.:   6.3
      thresh= 1.000E-02 alpha_mix =  0.700 |ddv_scf|^2 =  2.318E-06

      iter #   2 total cpu time :   302.0 secs   av.it.:   9.4
      thresh= 1.523E-04 alpha_mix =  0.700 |ddv_scf|^2 =  2.544E-07

      iter #   3 total cpu time :   302.1 secs   av.it.:   9.2
      thresh= 5.044E-05 alpha_mix =  0.700 |ddv_scf|^2 =  1.151E-10

      iter #   4 total cpu time :   302.3 secs   av.it.:   9.6
      thresh= 1.073E-06 alpha_mix =  0.700 |ddv_scf|^2 =  2.956E-12

      iter #   5 total cpu time :   302.4 secs   av.it.:   8.7
      thresh= 1.719E-07 alpha_mix =  0.700 |ddv_scf|^2 =  2.036E-15

      iter #   6 total cpu time :   302.5 secs   av.it.:   9.5
      thresh= 4.512E-09 alpha_mix =  0.700 |ddv_scf|^2 =  3.247E-17

      iter #   7 total cpu time :   302.7 secs   av.it.:   9.6
      thresh= 5.698E-10 alpha_mix =  0.700 |ddv_scf|^2 =  6.213E-19

      iter #   8 total cpu time :   302.8 secs   av.it.:   9.5
      thresh= 7.882E-11 alpha_mix =  0.700 |ddv_scf|^2 =  1.889E-20

      iter #   9 total cpu time :   302.9 secs   av.it.:   9.3
      thresh= 1.375E-11 alpha_mix =  0.700 |ddv_scf|^2 =  2.179E-22

      iter #  10 total cpu time :   303.1 secs   av.it.:   9.3
      thresh= 1.476E-12 alpha_mix =  0.700 |ddv_scf|^2 =  7.830E-24

      iter #  11 total cpu time :   303.3 secs   av.it.:   9.4
      thresh= 2.798E-13 alpha_mix =  0.700 |ddv_scf|^2 =  5.060E-25

     End of self-consistent calculation

     Convergence has been achieved 


     Representation #  4 mode #   4

     Self-consistent Calculation

      iter #   1 total cpu time :   303.6 secs   av.it.:   6.5
      thresh= 1.000E-02 alpha_mix =  0.700 |ddv_scf|^2 =  6.556E-06

      iter #   2 total cpu time :   303.8 secs   av.it.:   9.5
      thresh= 2.561E-04 alpha_mix =  0.700 |ddv_scf|^2 =  3.707E-06

      iter #   3 total cpu time :   303.9 secs   av.it.:   9.2
      thresh= 1.925E-04 alpha_mix =  0.700 |ddv_scf|^2 =  1.447E-08

      iter #   4 total cpu time :   304.1 secs   av.it.:   9.1
      thresh= 1.203E-05 alpha_mix =  0.700 |ddv_scf|^2 =  1.427E-11

      iter #   5 total cpu time :   304.2 secs   av.it.:   9.1
      thresh= 3.777E-07 alpha_mix =  0.700 |ddv_scf|^2 =  5.843E-14

      iter #   6 total cpu time :   304.3 secs   av.it.:   9.0
      thresh= 2.417E-08 alpha_mix =  0.700 |ddv_scf|^2 =  1.640E-15

      iter #   7 total cpu time :   304.5 secs   av.it.:   9.2
      thresh= 4.049E-09 alpha_mix =  0.700 |ddv_scf|^2 =  6.488E-18

      iter #   8 total cpu time :   304.6 secs   av.it.:   9.4
      thresh= 2.547E-10 alpha_mix =  0.700 |ddv_scf|^2 =  1.404E-18

      iter #   9 total cpu time :   304.7 secs   av.it.:   9.2
      thresh= 1.185E-10 alpha_mix =  0.700 |ddv_scf|^2 =  6.318E-21

      iter #  10 total cpu time :   304.9 secs   av.it.:   9.3
      thresh= 7.949E-12 alpha_mix =  0.700 |ddv_scf|^2 =  6.415E-23

      iter #  11 total cpu time :   305.1 secs   av.it.:   8.8
      thresh= 8.010E-13 alpha_mix =  0.700 |ddv_scf|^2 =  9.265E-25

     End of self-consistent calculation

     Convergence has been achieved 


     Representation #  5 mode #   5

     Self-consistent Calculation

      iter #   1 total cpu time :   305.4 secs   av.it.:   6.3
      thresh= 1.000E-02 alpha_mix =  0.700 |ddv_scf|^2 =  2.319E-06

      iter #   2 total cpu time :   305.6 secs   av.it.:   9.4
      thresh= 1.523E-04 alpha_mix =  0.700 |ddv_scf|^2 =  2.546E-07

      iter #   3 total cpu time :   305.8 secs   av.it.:   9.3
      thresh= 5.046E-05 alpha_mix =  0.700 |ddv_scf|^2 =  1.154E-10

      iter #   4 total cpu time :   305.9 secs   av.it.:   9.5
      thresh= 1.074E-06 alpha_mix =  0.700 |ddv_scf|^2 =  2.957E-12

      iter #   5 total cpu time :   306.0 secs   av.it.:   8.6
      thresh= 1.720E-07 alpha_mix =  0.700 |ddv_scf|^2 =  1.891E-15

      iter #   6 total cpu time :   306.2 secs   av.it.:   9.4
      thresh= 4.348E-09 alpha_mix =  0.700 |ddv_scf|^2 =  3.237E-17

      iter #   7 total cpu time :   306.3 secs   av.it.:   9.6
      thresh= 5.689E-10 alpha_mix =  0.700 |ddv_scf|^2 =  6.131E-19

      iter #   8 total cpu time :   306.5 secs   av.it.:   9.4
      thresh= 7.830E-11 alpha_mix =  0.700 |ddv_scf|^2 =  1.616E-20

      iter #   9 total cpu time :   306.6 secs   av.it.:   9.3
      thresh= 1.271E-11 alpha_mix =  0.700 |ddv_scf|^2 =  6.472E-23

      iter #  10 total cpu time :   306.8 secs   av.it.:   9.3
      thresh= 8.045E-13 alpha_mix =  0.700 |ddv_scf|^2 =  5.405E-24

      iter #  11 total cpu time :   307.3 secs   av.it.:   9.3
      thresh= 2.325E-13 alpha_mix =  0.700 |ddv_scf|^2 =  4.197E-25

     End of self-consistent calculation

     Convergence has been achieved 


     Representation #  6 mode #   6

     Self-consistent Calculation

      iter #   1 total cpu time :   307.6 secs   av.it.:   6.5
      thresh= 1.000E-02 alpha_mix =  0.700 |ddv_scf|^2 =  3.693E-06

      iter #   2 total cpu time :   307.7 secs   av.it.:   9.4
      thresh= 1.922E-04 alpha_mix =  0.700 |ddv_scf|^2 =  3.924E-07

      iter #   3 total cpu time :   307.9 secs   av.it.:   9.2
      thresh= 6.264E-05 alpha_mix =  0.700 |ddv_scf|^2 =  8.351E-11

      iter #   4 total cpu time :   308.0 secs   av.it.:   9.5
      thresh= 9.139E-07 alpha_mix =  0.700 |ddv_scf|^2 =  1.118E-12

      iter #   5 total cpu time :   308.2 secs   av.it.:   8.7
      thresh= 1.057E-07 alpha_mix =  0.700 |ddv_scf|^2 =  1.608E-14

      iter #   6 total cpu time :   308.3 secs   av.it.:   9.2
      thresh= 1.268E-08 alpha_mix =  0.700 |ddv_scf|^2 =  1.954E-17

      iter #   7 total cpu time :   308.4 secs   av.it.:   9.7
      thresh= 4.420E-10 alpha_mix =  0.700 |ddv_scf|^2 =  4.460E-19

      iter #   8 total cpu time :   308.6 secs   av.it.:   9.4
      thresh= 6.678E-11 alpha_mix =  0.700 |ddv_scf|^2 =  5.477E-21

      iter #   9 total cpu time :   308.7 secs   av.it.:   9.4
      thresh= 7.400E-12 alpha_mix =  0.700 |ddv_scf|^2 =  2.193E-22

      iter #  10 total cpu time :   308.8 secs   av.it.:   9.4
      thresh= 1.481E-12 alpha_mix =  0.700 |ddv_scf|^2 =  1.342E-23

      iter #  11 total cpu time :   309.1 secs   av.it.:   9.6
      thresh= 3.663E-13 alpha_mix =  0.700 |ddv_scf|^2 =  6.163E-26

     End of self-consistent calculation

     Convergence has been achieved 
 
     Number of q in the star =    6
     List of q in the star:
          1  -0.500000000  -1.000000000   0.000000000
          2   0.000000000   1.000000000  -0.500000000
          3   0.000000000   1.000000000   0.500000000
          4   0.500000000   1.000000000   0.000000000
          5   0.000000000  -0.500000000  -1.000000000
          6   0.000000000   0.500000000  -1.000000000

     Diagonalizing the dynamical matrix

     q = (   -0.500000000  -1.000000000   0.000000000 ) 

 **************************************************************************
     freq (    1) =      27.244740 [THz] =     908.786702 [cm-1]
     freq (    2) =      27.245263 [THz] =     908.804151 [cm-1]
     freq (    3) =      29.459887 [THz] =     982.676050 [cm-1]
     freq (    4) =      29.460466 [THz] =     982.695354 [cm-1]
     freq (    5) =      34.249886 [THz] =    1142.453230 [cm-1]
     freq (    6) =      34.250333 [THz] =    1142.468125 [cm-1]
 **************************************************************************

     Mode symmetry, S_4 (-4)    point group:

     freq (  1 -  1) =        908.8  [cm-1]   --> B    W_3           
     freq (  2 -  2) =        908.8  [cm-1]   --> E*   W_2           
     freq (  3 -  3) =        982.7  [cm-1]   --> A    W_1           
     freq (  4 -  4) =        982.7  [cm-1]   --> E    W_4           
     freq (  5 -  5) =       1142.5  [cm-1]   --> B    W_3           
     freq (  6 -  6) =       1142.5  [cm-1]   --> E*   W_2           
 
     init_run     :      0.09s CPU      0.29s WALL (       7 calls)
     electrons    :      5.43s CPU      5.68s WALL (       7 calls)

     Called by init_run:
     wfcinit      :      0.00s CPU      0.15s WALL (       7 calls)
     potinit      :      0.03s CPU      0.04s WALL (       7 calls)

     Called by electrons:
     c_bands      :      5.42s CPU      5.64s WALL (       7 calls)
     v_of_rho     :      0.01s CPU      0.01s WALL (       8 calls)

     Called by c_bands:
     init_us_2    :      0.09s CPU      0.11s WALL (   14452 calls)
     cegterg      :      3.50s CPU      3.61s WALL (     344 calls)

     Called by sum_band:

     Called by *egterg:
     h_psi        :     99.61s CPU    102.70s WALL (  151385 calls)
     g_psi        :      0.00s CPU      0.00s WALL (    3248 calls)
     cdiaghg      :      0.72s CPU      0.74s WALL (    3592 calls)

     Called by h_psi:
     h_psi:pot    :     99.35s CPU    102.41s WALL (  151385 calls)
     h_psi:calbec :      4.40s CPU      4.60s WALL (  151385 calls)
     vloc_psi     :     93.93s CPU     96.74s WALL (  151385 calls)
     add_vuspsi   :      0.49s CPU      0.52s WALL (  151385 calls)

     General routines
     calbec       :     19.91s CPU     20.40s WALL (  304978 calls)
     fft          :      0.59s CPU      0.78s WALL (    1817 calls)
     ffts         :      0.18s CPU      0.20s WALL (    1356 calls)
     fftw         :    186.51s CPU    190.72s WALL ( 1370174 calls)
     davcio       :      1.61s CPU      5.37s WALL (   73324 calls)
 
     Parallel routines
     fft_scatter  :    178.12s CPU    182.04s WALL ( 1373347 calls)
 
     PHONON       :  4m43.61s CPU     5m 9.61s WALL

     INITIALIZATION: 
     phq_setup    :      0.04s CPU      0.06s WALL (       8 calls)
     phq_init     :      1.96s CPU      2.13s WALL (       8 calls)
 
     phq_init     :      1.96s CPU      2.13s WALL (       8 calls)
     init_vloc    :      0.00s CPU      0.00s WALL (       8 calls)
     init_us_1    :      0.01s CPU      0.01s WALL (       8 calls)
 
     DYNAMICAL MATRIX:
     dynmat0      :      0.56s CPU      0.59s WALL (       8 calls)
     phqscf       :    269.98s CPU    287.87s WALL (       8 calls)
     dynmatrix    :      0.02s CPU      0.05s WALL (       8 calls)
 
     phqscf       :    269.98s CPU    287.87s WALL (       8 calls)
     solve_linter :    260.26s CPU    277.80s WALL (      38 calls)
     drhodv       :      9.67s CPU      9.96s WALL (      38 calls)
 
     dynmat0      :      0.56s CPU      0.59s WALL (       8 calls)
     dynmat_us    :      0.55s CPU      0.56s WALL (       8 calls)
     d2ionq       :      0.00s CPU      0.00s WALL (       8 calls)
 
     dynmat_us    :      0.55s CPU      0.56s WALL (       8 calls)
 
     phqscf       :    269.98s CPU    287.87s WALL (       8 calls)
     solve_linter :    260.26s CPU    277.80s WALL (      38 calls)
 
     solve_linter :    260.26s CPU    277.80s WALL (      38 calls)
     dvqpsi_us    :      0.99s CPU      1.07s WALL (    1128 calls)
     ortho        :      1.79s CPU      1.84s WALL (   14062 calls)
     cgsolve      :    116.37s CPU    120.29s WALL (   14062 calls)
     incdrhoscf   :     64.99s CPU     65.72s WALL (   14038 calls)
     vpsifft      :     29.19s CPU     29.95s WALL (   12766 calls)
     dv_of_drho   :      0.38s CPU      0.43s WALL (     595 calls)
     mix_pot      :     22.05s CPU     29.96s WALL (     487 calls)
     psymdvscf    :      2.87s CPU      3.15s WALL (     479 calls)
 
     dvqpsi_us    :      0.99s CPU      1.07s WALL (    1128 calls)
     dvqpsi_us_on :      0.02s CPU      0.03s WALL (    1128 calls)
 
     cgsolve      :    116.37s CPU    120.29s WALL (   14062 calls)
     ch_psi       :    106.79s CPU    110.28s WALL (  147449 calls)
 
     ch_psi       :    106.79s CPU    110.28s WALL (  147449 calls)
     h_psi        :     99.61s CPU    102.70s WALL (  151385 calls)
     last         :      9.23s CPU      9.70s WALL (  147449 calls)
 
     h_psi        :     99.61s CPU    102.70s WALL (  151385 calls)
     add_vuspsi   :      0.49s CPU      0.52s WALL (  151385 calls)
 
     incdrhoscf   :     64.99s CPU     65.72s WALL (   14038 calls)
 
 
      General routines
     calbec       :     19.91s CPU     20.40s WALL (  304978 calls)
     fft          :      0.59s CPU      0.78s WALL (    1817 calls)
     ffts         :      0.18s CPU      0.20s WALL (    1356 calls)
     fftw         :    186.51s CPU    190.72s WALL ( 1370174 calls)
     davcio       :      1.61s CPU      5.37s WALL (   73324 calls)
     write_rec    :      0.56s CPU      2.48s WALL (     525 calls)
 
 
     PHONON       :  4m43.61s CPU     5m 9.61s WALL

 
   This run was terminated on:  22:47:59  15Dec2020            

=------------------------------------------------------------------------------=
   JOB DONE.
=------------------------------------------------------------------------------=
