
     Program PWSCF v.6.1 (svn rev. 13369) starts on 24May2021 at  9:15:49 

     This program is part of the open-source Quantum ESPRESSO suite
     for quantum simulation of materials; please cite
         "P. Giannozzi et al., J. Phys.:Condens. Matter 21 395502 (2009);
          URL http://www.quantum-espresso.org", 
     in publications or presentations arising from this work. More details at
     http://www.quantum-espresso.org/quote

     Parallel version (MPI & OpenMP), running on      80 processor cores
     Number of MPI processes:                80
     Threads/MPI process:                     1
     R & G space division:  proc/nbgrp/npool/nimage =      80
     Waiting for input...
     Reading input from standard input

     Current dimensions of program PWSCF are:
     Max number of different atomic species (ntypx) = 10
     Max number of k-points (npk) =  40000
     Max angular momentum in pseudopotentials (lmaxx) =  3

     IMPORTANT: XC functional enforced from input :
     Exchange-correlation      = PBE ( 1  4  3  4 0 0)
     Any further DFT definition will be discarded
     Please, verify this is what you really want


     Subspace diagonalization in iterative solution of the eigenvalue problem:
     one sub-group per band group will be used
     scalapack distributed-memory algorithm (size of sub-group:  6*  6 procs)

 
     Parallelization info
     --------------------
     sticks:   dense  smooth     PW     G-vecs:    dense   smooth      PW
     Min          61      61     15                 2872     2872     357
     Max          62      62     16                 2881     2881     361
     Sum        4939    4939   1237               230193   230193   28763
 


     bravais-lattice index     =            2
     lattice parameter (alat)  =      26.8137  a.u.
     unit-cell volume          =    4819.5928 (a.u.)^3
     number of atoms/cell      =          128
     number of atomic types    =            1
     number of electrons       =       512.00
     number of Kohn-Sham states=          300
     kinetic-energy cutoff     =      50.0000  Ry
     charge density cutoff     =     200.0000  Ry
     convergence threshold     =      1.0E-10
     mixing beta               =       0.7000
     number of iterations used =            8  local-TF  mixing
     Exchange-correlation      = PBE ( 1  4  3  4 0 0)
     nstep                     =           50


     celldm(1)=  26.813702  celldm(2)=   0.000000  celldm(3)=   0.000000
     celldm(4)=   0.000000  celldm(5)=   0.000000  celldm(6)=   0.000000

     crystal axes: (cart. coord. in units of alat)
               a(1) = (  -0.500000   0.000000   0.500000 )  
               a(2) = (   0.000000   0.500000   0.500000 )  
               a(3) = (  -0.500000   0.500000   0.000000 )  

     reciprocal axes: (cart. coord. in units 2 pi/alat)
               b(1) = ( -1.000000 -1.000000  1.000000 )  
               b(2) = (  1.000000  1.000000  1.000000 )  
               b(3) = ( -1.000000  1.000000 -1.000000 )  


     PseudoPot. # 1 for C  read from file:
     ~/PseudoPotential/upf/C_ONCV_PBE-1.0.upf
     MD5 check sum: Not computed, couldn't open file
     Pseudo is Norm-conserving, Zval =  4.0
     Generated using ONCVPSP code by D. R. Hamann
     Using radial grid of  602 points,  4 beta functions with: 
                l(1) =   0
                l(2) =   0
                l(3) =   1
                l(4) =   1

     atomic species   valence    mass     pseudopotential
        C              4.00    12.01100     C ( 1.00)

     No symmetry found



   Cartesian axes

     site n.     atom                  positions (alat units)
         1           C   tau(   1) = (   0.0000000   0.0000000   0.0000000  )
         2           C   tau(   2) = (  -0.0625000   0.0625000   0.0625000  )
         3           C   tau(   3) = (  -0.1250000   0.1250000   0.0000000  )
         4           C   tau(   4) = (  -0.1875000   0.1875000   0.0625000  )
         5           C   tau(   5) = (  -0.2500000   0.2500000   0.0000000  )
         6           C   tau(   6) = (  -0.3125000   0.3125000   0.0625000  )
         7           C   tau(   7) = (  -0.3750000   0.3750000   0.0000000  )
         8           C   tau(   8) = (  -0.4375000   0.4375000   0.0625000  )
         9           C   tau(   9) = (   0.0000000   0.1250000   0.1250000  )
        10           C   tau(  10) = (  -0.0625000   0.1875000   0.1875000  )
        11           C   tau(  11) = (  -0.1250000   0.2500000   0.1250000  )
        12           C   tau(  12) = (  -0.1875000   0.3125000   0.1875000  )
        13           C   tau(  13) = (  -0.2500000   0.3750000   0.1250000  )
        14           C   tau(  14) = (  -0.3125000   0.4375000   0.1875000  )
        15           C   tau(  15) = (  -0.3750000   0.5000000   0.1250000  )
        16           C   tau(  16) = (  -0.4375000   0.5625000   0.1875000  )
        17           C   tau(  17) = (   0.0000000   0.2500000   0.2500000  )
        18           C   tau(  18) = (  -0.0625000   0.3125000   0.3125000  )
        19           C   tau(  19) = (  -0.1250000   0.3750000   0.2500000  )
        20           C   tau(  20) = (  -0.1875000   0.4375000   0.3125000  )
        21           C   tau(  21) = (  -0.2500000   0.5000000   0.2500000  )
        22           C   tau(  22) = (  -0.3125000   0.5625000   0.3125000  )
        23           C   tau(  23) = (  -0.3750000   0.6250000   0.2500000  )
        24           C   tau(  24) = (  -0.4375000   0.6875000   0.3125000  )
        25           C   tau(  25) = (   0.0000000   0.3750000   0.3750000  )
        26           C   tau(  26) = (  -0.0625000   0.4375000   0.4375000  )
        27           C   tau(  27) = (  -0.1250000   0.5000000   0.3750000  )
        28           C   tau(  28) = (  -0.1875000   0.5625000   0.4375000  )
        29           C   tau(  29) = (  -0.2500000   0.6250000   0.3750000  )
        30           C   tau(  30) = (  -0.3125000   0.6875000   0.4375000  )
        31           C   tau(  31) = (  -0.3750000   0.7500000   0.3750000  )
        32           C   tau(  32) = (  -0.4375000   0.8125000   0.4375000  )
        33           C   tau(  33) = (  -0.1250000   0.0000000   0.1250000  )
        34           C   tau(  34) = (  -0.1875000   0.0625000   0.1875000  )
        35           C   tau(  35) = (  -0.2500000   0.1250000   0.1250000  )
        36           C   tau(  36) = (  -0.3125000   0.1875000   0.1875000  )
        37           C   tau(  37) = (  -0.3750000   0.2500000   0.1250000  )
        38           C   tau(  38) = (  -0.4375000   0.3125000   0.1875000  )
        39           C   tau(  39) = (  -0.5000000   0.3750000   0.1250000  )
        40           C   tau(  40) = (  -0.5625000   0.4375000   0.1875000  )
        41           C   tau(  41) = (  -0.1250000   0.1250000   0.2500000  )
        42           C   tau(  42) = (  -0.1875000   0.1875000   0.3125000  )
        43           C   tau(  43) = (  -0.2500000   0.2500000   0.2500000  )
        44           C   tau(  44) = (  -0.3125000   0.3125000   0.3125000  )
        45           C   tau(  45) = (  -0.3750000   0.3750000   0.2500000  )
        46           C   tau(  46) = (  -0.4375000   0.4375000   0.3125000  )
        47           C   tau(  47) = (  -0.5000000   0.5000000   0.2500000  )
        48           C   tau(  48) = (  -0.5625000   0.5625000   0.3125000  )
        49           C   tau(  49) = (  -0.1250000   0.2500000   0.3750000  )
        50           C   tau(  50) = (  -0.1875000   0.3125000   0.4375000  )
        51           C   tau(  51) = (  -0.2500000   0.3750000   0.3750000  )
        52           C   tau(  52) = (  -0.3125000   0.4375000   0.4375000  )
        53           C   tau(  53) = (  -0.3750000   0.5000000   0.3750000  )
        54           C   tau(  54) = (  -0.4375000   0.5625000   0.4375000  )
        55           C   tau(  55) = (  -0.5000000   0.6250000   0.3750000  )
        56           C   tau(  56) = (  -0.5625000   0.6875000   0.4375000  )
        57           C   tau(  57) = (  -0.1250000   0.3750000   0.5000000  )
        58           C   tau(  58) = (  -0.1875000   0.4375000   0.5625000  )
        59           C   tau(  59) = (  -0.2500000   0.5000000   0.5000000  )
        60           C   tau(  60) = (  -0.3125000   0.5625000   0.5625000  )
        61           C   tau(  61) = (  -0.3750000   0.6250000   0.5000000  )
        62           C   tau(  62) = (  -0.4375000   0.6875000   0.5625000  )
        63           C   tau(  63) = (  -0.5000000   0.7500000   0.5000000  )
        64           C   tau(  64) = (  -0.5625000   0.8125000   0.5625000  )
        65           C   tau(  65) = (  -0.2500000   0.0000000   0.2500000  )
        66           C   tau(  66) = (  -0.3125000   0.0625000   0.3125000  )
        67           C   tau(  67) = (  -0.3750000   0.1250000   0.2500000  )
        68           C   tau(  68) = (  -0.4375000   0.1875000   0.3125000  )
        69           C   tau(  69) = (  -0.5000000   0.2500000   0.2500000  )
        70           C   tau(  70) = (  -0.5625000   0.3125000   0.3125000  )
        71           C   tau(  71) = (  -0.6250000   0.3750000   0.2500000  )
        72           C   tau(  72) = (  -0.6875000   0.4375000   0.3125000  )
        73           C   tau(  73) = (  -0.2500000   0.1250000   0.3750000  )
        74           C   tau(  74) = (  -0.3125000   0.1875000   0.4375000  )
        75           C   tau(  75) = (  -0.3750000   0.2500000   0.3750000  )
        76           C   tau(  76) = (  -0.4375000   0.3125000   0.4375000  )
        77           C   tau(  77) = (  -0.5000000   0.3750000   0.3750000  )
        78           C   tau(  78) = (  -0.5625000   0.4375000   0.4375000  )
        79           C   tau(  79) = (  -0.6250000   0.5000000   0.3750000  )
        80           C   tau(  80) = (  -0.6875000   0.5625000   0.4375000  )
        81           C   tau(  81) = (  -0.2500000   0.2500000   0.5000000  )
        82           C   tau(  82) = (  -0.3125000   0.3125000   0.5625000  )
        83           C   tau(  83) = (  -0.3750000   0.3750000   0.5000000  )
        84           C   tau(  84) = (  -0.4375000   0.4375000   0.5625000  )
        85           C   tau(  85) = (  -0.5000000   0.5000000   0.5000000  )
        86           C   tau(  86) = (  -0.5625000   0.5625000   0.5625000  )
        87           C   tau(  87) = (  -0.6250000   0.6250000   0.5000000  )
        88           C   tau(  88) = (  -0.6875000   0.6875000   0.5625000  )
        89           C   tau(  89) = (  -0.2500000   0.3750000   0.6250000  )
        90           C   tau(  90) = (  -0.3125000   0.4375000   0.6875000  )
        91           C   tau(  91) = (  -0.3750000   0.5000000   0.6250000  )
        92           C   tau(  92) = (  -0.4375000   0.5625000   0.6875000  )
        93           C   tau(  93) = (  -0.5000000   0.6250000   0.6250000  )
        94           C   tau(  94) = (  -0.5625000   0.6875000   0.6875000  )
        95           C   tau(  95) = (  -0.6250000   0.7500000   0.6250000  )
        96           C   tau(  96) = (  -0.6875000   0.8125000   0.6875000  )
        97           C   tau(  97) = (  -0.3750000   0.0000000   0.3750000  )
        98           C   tau(  98) = (  -0.4375000   0.0625000   0.4375000  )
        99           C   tau(  99) = (  -0.5000000   0.1250000   0.3750000  )
       100           C   tau( 100) = (  -0.5625000   0.1875000   0.4375000  )
       101           C   tau( 101) = (  -0.6250000   0.2500000   0.3750000  )
       102           C   tau( 102) = (  -0.6875000   0.3125000   0.4375000  )
       103           C   tau( 103) = (  -0.7500000   0.3750000   0.3750000  )
       104           C   tau( 104) = (  -0.8125000   0.4375000   0.4375000  )
       105           C   tau( 105) = (  -0.3750000   0.1250000   0.5000000  )
       106           C   tau( 106) = (  -0.4375000   0.1875000   0.5625000  )
       107           C   tau( 107) = (  -0.5000000   0.2500000   0.5000000  )
       108           C   tau( 108) = (  -0.5625000   0.3125000   0.5625000  )
       109           C   tau( 109) = (  -0.6250000   0.3750000   0.5000000  )
       110           C   tau( 110) = (  -0.6875000   0.4375000   0.5625000  )
       111           C   tau( 111) = (  -0.7500000   0.5000000   0.5000000  )
       112           C   tau( 112) = (  -0.8125000   0.5625000   0.5625000  )
       113           C   tau( 113) = (  -0.3750000   0.2500000   0.6250000  )
       114           C   tau( 114) = (  -0.4375000   0.3125000   0.6875000  )
       115           C   tau( 115) = (  -0.5000000   0.3750000   0.6250000  )
       116           C   tau( 116) = (  -0.5625000   0.4375000   0.6875000  )
       117           C   tau( 117) = (  -0.6250000   0.5000000   0.6250000  )
       118           C   tau( 118) = (  -0.6875000   0.5625000   0.6875000  )
       119           C   tau( 119) = (  -0.7500000   0.6250000   0.6250000  )
       120           C   tau( 120) = (  -0.8125000   0.6875000   0.6875000  )
       121           C   tau( 121) = (  -0.3750000   0.3750000   0.7500000  )
       122           C   tau( 122) = (  -0.4375000   0.4375000   0.8125000  )
       123           C   tau( 123) = (  -0.5000000   0.5000000   0.7500000  )
       124           C   tau( 124) = (  -0.5625000   0.5625000   0.8125000  )
       125           C   tau( 125) = (  -0.6250000   0.6250000   0.7500000  )
       126           C   tau( 126) = (  -0.6875000   0.6875000   0.8125000  )
       127           C   tau( 127) = (  -0.7500000   0.7500000   0.7500000  )
       128           C   tau( 128) = (  -0.8125000   0.8125000   0.8125000  )

     number of k points=     1
                       cart. coord. in units 2pi/alat
        k(    1) = (   0.0000000   0.0000000   0.0000000), wk =   2.0000000

     Dense  grid:   230193 G-vectors     FFT dimensions: (  90,  90,  90)

     Estimated max dynamical RAM per process >      14.28MB

     Estimated total allocated dynamical RAM >    1142.37MB

     Initial potential from superposition of free atoms

     starting charge  511.10830, renormalised to  512.00000
     Starting wfc are random

     total cpu time spent up to now is        3.3 secs

     per-process dynamical memory:    54.6 Mb

     Self-consistent Calculation

     iteration #  1     ecut=    50.00 Ry     beta=0.70
     CG style diagonalization
     ethr =  1.00E-02,  avg # of iterations = 12.4

     total cpu time spent up to now is       62.1 secs

     total energy              =   -1455.67421682 Ry
     Harris-Foulkes estimate   =   -1458.23793491 Ry
     estimated scf accuracy    <       7.83805265 Ry

     iteration #  2     ecut=    50.00 Ry     beta=0.70
     CG style diagonalization
     ethr =  1.53E-03,  avg # of iterations =  4.1

     total cpu time spent up to now is       77.2 secs

     total energy              =   -1456.49734591 Ry
     Harris-Foulkes estimate   =   -1457.17797065 Ry
     estimated scf accuracy    <       1.67357745 Ry

     iteration #  3     ecut=    50.00 Ry     beta=0.70
     CG style diagonalization
     ethr =  3.27E-04,  avg # of iterations =  3.7

     total cpu time spent up to now is       89.9 secs

     total energy              =   -1456.69235420 Ry
     Harris-Foulkes estimate   =   -1456.68182816 Ry
     estimated scf accuracy    <       0.00873318 Ry

     iteration #  4     ecut=    50.00 Ry     beta=0.70
     CG style diagonalization
     c_bands:  5 eigenvalues not converged
     ethr =  1.71E-06,  avg # of iterations =  6.8

     total cpu time spent up to now is      115.8 secs

     total energy              =   -1456.72263529 Ry
     Harris-Foulkes estimate   =   -1456.72244442 Ry
     estimated scf accuracy    <       0.00092599 Ry

     iteration #  5     ecut=    50.00 Ry     beta=0.70
     CG style diagonalization
     c_bands:  5 eigenvalues not converged
     ethr =  1.81E-07,  avg # of iterations =  4.1

     total cpu time spent up to now is      130.6 secs

     total energy              =   -1456.72275038 Ry
     Harris-Foulkes estimate   =   -1456.72275383 Ry
     estimated scf accuracy    <       0.00005528 Ry

     iteration #  6     ecut=    50.00 Ry     beta=0.70
     CG style diagonalization
     c_bands:  5 eigenvalues not converged
     ethr =  1.08E-08,  avg # of iterations =  4.5

     total cpu time spent up to now is      147.8 secs

     total energy              =   -1456.72275965 Ry
     Harris-Foulkes estimate   =   -1456.72276148 Ry
     estimated scf accuracy    <       0.00000526 Ry

     iteration #  7     ecut=    50.00 Ry     beta=0.70
     CG style diagonalization
     c_bands:  4 eigenvalues not converged
     ethr =  1.03E-09,  avg # of iterations =  4.6

     total cpu time spent up to now is      164.5 secs

     total energy              =   -1456.72276100 Ry
     Harris-Foulkes estimate   =   -1456.72276115 Ry
     estimated scf accuracy    <       0.00000051 Ry

     iteration #  8     ecut=    50.00 Ry     beta=0.70
     CG style diagonalization
     c_bands:  5 eigenvalues not converged
     ethr =  1.00E-10,  avg # of iterations =  4.8

     total cpu time spent up to now is      182.5 secs

     total energy              =   -1456.72276113 Ry
     Harris-Foulkes estimate   =   -1456.72276116 Ry
     estimated scf accuracy    <       0.00000015 Ry

     iteration #  9     ecut=    50.00 Ry     beta=0.70
     CG style diagonalization
     c_bands:  4 eigenvalues not converged
     ethr =  2.95E-11,  avg # of iterations =  3.8

     total cpu time spent up to now is      195.9 secs

     total energy              =   -1456.72276113 Ry
     Harris-Foulkes estimate   =   -1456.72276115 Ry
     estimated scf accuracy    <       0.00000006 Ry

     iteration # 10     ecut=    50.00 Ry     beta=0.70
     CG style diagonalization
     c_bands:  5 eigenvalues not converged
     ethr =  1.14E-11,  avg # of iterations =  4.3

     total cpu time spent up to now is      212.1 secs

     total energy              = -1456.722761134681150 Ry
     Harris-Foulkes estimate   =   -1456.72276114 Ry
     estimated scf accuracy    <          6.7E-09 Ry

     iteration # 11     ecut=    50.00 Ry     beta=0.70
     CG style diagonalization
     c_bands:  5 eigenvalues not converged
     ethr =  1.30E-12,  avg # of iterations =  5.0

     total cpu time spent up to now is      230.3 secs

     total energy              = -1456.722761136694317 Ry
     Harris-Foulkes estimate   =   -1456.72276114 Ry
     estimated scf accuracy    <          1.8E-09 Ry

     iteration # 12     ecut=    50.00 Ry     beta=0.70
     CG style diagonalization
     c_bands:  5 eigenvalues not converged
     ethr =  3.57E-13,  avg # of iterations =  4.0

     total cpu time spent up to now is      244.3 secs

     total energy              = -1456.722761136502868 Ry
     Harris-Foulkes estimate   =   -1456.72276114 Ry
     estimated scf accuracy    <          1.2E-09 Ry

     iteration # 13     ecut=    50.00 Ry     beta=0.70
     CG style diagonalization
     c_bands:  5 eigenvalues not converged
     ethr =  2.38E-13,  avg # of iterations =  3.3

     total cpu time spent up to now is      255.0 secs

     total energy              = -1456.722761136387589 Ry
     Harris-Foulkes estimate   =   -1456.72276114 Ry
     estimated scf accuracy    <          3.7E-10 Ry

     iteration # 14     ecut=    50.00 Ry     beta=0.70
     CG style diagonalization
     c_bands:  5 eigenvalues not converged
     ethr =  1.00E-13,  avg # of iterations =  4.7

     total cpu time spent up to now is      271.6 secs

     End of self-consistent calculation

          k = 0.0000 0.0000 0.0000 ( 28763 PWs)   bands (ev):

    -8.0322  -6.2987  -6.2987  -6.2987  -6.2987  -6.2987  -6.2987  -6.2987
    -6.2987  -5.7236  -5.7236  -5.7236  -5.7236  -5.7236  -5.7236  -3.5120
    -3.5120  -3.5120  -3.5119  -3.5119  -3.5119  -3.5119  -3.5119  -3.5119
    -3.5119  -3.5119  -3.5119  -2.1637  -2.1636  -2.1636  -2.1636  -1.9348
    -1.9348  -1.9348  -1.9348  -1.9348  -1.9348  -1.9348  -1.9348  -1.9348
    -1.9348  -1.9348  -1.9348  -1.9348  -1.9348  -1.9348  -1.9348  -1.9348
    -1.9348  -1.9348  -1.9348  -1.9347  -1.9347  -1.9347  -1.9347   0.1075
     0.1075   0.1075   0.1076   0.7856   0.7856   0.7856   0.7856   0.7856
     0.7856   1.6026   1.6026   1.6026   1.6026   1.6026   1.6026   1.6026
     1.6026   1.6026   1.6026   1.6026   1.6026   2.7619   2.7619   2.7619
     2.7619   2.7619   2.7619   2.7619   2.7619   2.7619   2.7619   2.7619
     2.7619   2.7619   2.7619   2.7619   2.7619   2.7619   2.7619   2.7619
     2.7619   2.7620   2.7620   2.7620   2.7620   4.8862   4.8862   4.8862
     4.8862   4.8862   4.8862   4.8862   4.8862   4.8862   4.8862   4.8862
     4.8862   5.2028   5.2028   5.2028   5.2028   5.2028   5.2028   5.2028
     5.2028   5.2028   5.2028   5.2028   5.2028   5.9466   5.9467   5.9467
     5.9467   5.9467   5.9467   5.9467   5.9467   5.9467   5.9467   5.9467
     5.9467   6.8433   6.8433   6.8433   6.8433   6.8434   6.8434   6.8434
     6.8434   6.8434   6.8434   6.8434   6.8434   6.8434   6.8434   6.8434
     6.8434   6.8434   6.8434   6.8434   6.8434   6.8434   6.8434   6.8434
     6.8434   7.0005   7.0005   7.0005   7.0005   7.0005   7.0005   7.0005
     7.0005   7.2720   7.2720   7.2720   7.2720   7.2720   7.2720   8.7132
     8.7132   8.7132   8.7132   8.7132   8.7132   8.7132   8.7132   8.7132
     8.7132   8.7132   8.7132   8.7132   8.7132   8.7132   8.7132   8.7132
     8.7132   8.7132   8.7132   8.7132   8.7132   8.7132   8.7132   9.1402
     9.1402   9.1402   9.1402   9.1402   9.1402   9.4806   9.4806   9.4806
     9.4806   9.4806   9.4807   9.4807   9.4807   9.4807   9.4807   9.4807
     9.4807  10.6193  10.6193  10.6193  10.6193  10.6193  10.6193  10.6194
    10.6194  10.6194  10.6194  10.6194  10.6194  10.8276  10.8276  10.8276
    10.8277  10.8277  10.8277  10.8277  10.8277  11.8983  11.8983  11.8983
    11.8983  11.8983  11.8983  11.8983  11.8983  11.8983  11.8983  11.8983
    11.8983  11.8983  11.8983  11.8983  11.8983  13.6899  13.6899  13.6899
    18.1755  18.1755  18.1755  18.1755  18.1755  18.1755  18.4815  18.4815
    18.4815  18.4815  18.4815  18.4815  19.3266  19.3266  19.3266  19.8233
    19.8233  19.8233  19.8233  19.8233  19.8233  19.8233  19.8233  19.8233
    19.8233  19.8233  19.8233  19.8233  19.8233  19.8233  19.8233  19.8233
    19.8233  19.8233  19.8233  19.8233  19.8233  19.8233  19.8233  21.5735
    21.5735  21.5735  21.5735  21.5735

     highest occupied, lowest unoccupied level (ev):    13.6899   18.1755

!    total energy              = -1456.722761136484223 Ry
     Harris-Foulkes estimate   =   -1456.72276114 Ry
     estimated scf accuracy    <          8.0E-11 Ry

     The total energy is the sum of the following terms:

     one-electron contribution =     523.04654644 Ry
     hartree contribution      =     123.56577066 Ry
     xc contribution           =    -457.58509922 Ry
     ewald contribution        =   -1645.74997902 Ry

     convergence has been achieved in  14 iterations

     Forces acting on atoms (cartesian axes, Ry/au):

     atom    1 type  1   force =     0.00000007   -0.00000002    0.00000019
     atom    2 type  1   force =    -0.00004454    0.00004458    0.00004464
     atom    3 type  1   force =     0.00000001   -0.00000000   -0.00000456
     atom    4 type  1   force =     0.00004452   -0.00004464    0.00004462
     atom    5 type  1   force =    -0.00000014    0.00000008    0.00000001
     atom    6 type  1   force =    -0.00004468    0.00004462    0.00004454
     atom    7 type  1   force =     0.00000009    0.00000001   -0.00000453
     atom    8 type  1   force =     0.00004470   -0.00004457    0.00004459
     atom    9 type  1   force =     0.00000462   -0.00000003    0.00000005
     atom   10 type  1   force =    -0.00004458   -0.00004464   -0.00004461
     atom   11 type  1   force =    -0.00000009    0.00000451    0.00000007
     atom   12 type  1   force =     0.00003641    0.00003651   -0.00003649
     atom   13 type  1   force =     0.00000446    0.00000001   -0.00000011
     atom   14 type  1   force =    -0.00004461   -0.00004452   -0.00004461
     atom   15 type  1   force =     0.00000006    0.00000458   -0.00000005
     atom   16 type  1   force =     0.00003662    0.00003657   -0.00003665
     atom   17 type  1   force =     0.00000005   -0.00000000   -0.00000003
     atom   18 type  1   force =    -0.00004456    0.00004461    0.00004462
     atom   19 type  1   force =    -0.00000007   -0.00000002   -0.00000455
     atom   20 type  1   force =     0.00004450   -0.00004451    0.00004457
     atom   21 type  1   force =    -0.00000009    0.00000005   -0.00000006
     atom   22 type  1   force =    -0.00004451    0.00004456    0.00004447
     atom   23 type  1   force =     0.00000010   -0.00000002   -0.00000470
     atom   24 type  1   force =     0.00004464   -0.00004463    0.00004447
     atom   25 type  1   force =     0.00000475   -0.00000003    0.00000001
     atom   26 type  1   force =    -0.00004457   -0.00004463   -0.00004453
     atom   27 type  1   force =    -0.00000008    0.00000461   -0.00000006
     atom   28 type  1   force =     0.00003647    0.00003656   -0.00003660
     atom   29 type  1   force =     0.00000465    0.00000008   -0.00000008
     atom   30 type  1   force =    -0.00004450   -0.00004447   -0.00004460
     atom   31 type  1   force =     0.00000014    0.00000467    0.00000008
     atom   32 type  1   force =     0.00003672    0.00003665   -0.00003651
     atom   33 type  1   force =    -0.00000006   -0.00000456    0.00000003
     atom   34 type  1   force =     0.00004442    0.00004453   -0.00004459
     atom   35 type  1   force =    -0.00000463   -0.00000005    0.00000006
     atom   36 type  1   force =    -0.00003653   -0.00003660   -0.00003660
     atom   37 type  1   force =    -0.00000001   -0.00000449   -0.00000004
     atom   38 type  1   force =     0.00004481    0.00004463   -0.00004475
     atom   39 type  1   force =    -0.00000441    0.00000004   -0.00000009
     atom   40 type  1   force =    -0.00003659   -0.00003649   -0.00003666
     atom   41 type  1   force =    -0.00000013   -0.00000001    0.00000454
     atom   42 type  1   force =     0.00003636   -0.00003657    0.00003657
     atom   43 type  1   force =    -0.00000018    0.00000004    0.00000007
     atom   44 type  1   force =    -0.00003646    0.00003658    0.00003649
     atom   45 type  1   force =     0.00000017   -0.00000015    0.00000444
     atom   46 type  1   force =     0.00003674   -0.00003663    0.00003656
     atom   47 type  1   force =     0.00000005    0.00000005   -0.00000010
     atom   48 type  1   force =    -0.00003657    0.00003661    0.00003653
     atom   49 type  1   force =    -0.00000014   -0.00000451    0.00000009
     atom   50 type  1   force =     0.00004451    0.00004457   -0.00004449
     atom   51 type  1   force =    -0.00000466   -0.00000002    0.00000005
     atom   52 type  1   force =    -0.00003658   -0.00003657   -0.00003659
     atom   53 type  1   force =     0.00000016   -0.00000467    0.00000005
     atom   54 type  1   force =     0.00004464    0.00004447   -0.00004457
     atom   55 type  1   force =    -0.00000463    0.00000001   -0.00000002
     atom   56 type  1   force =    -0.00003660   -0.00003654   -0.00003651
     atom   57 type  1   force =    -0.00000008   -0.00000011    0.00000460
     atom   58 type  1   force =     0.00003637   -0.00003666    0.00003657
     atom   59 type  1   force =    -0.00000010   -0.00000008    0.00000004
     atom   60 type  1   force =    -0.00003650    0.00003657    0.00003660
     atom   61 type  1   force =     0.00000011    0.00000006    0.00000471
     atom   62 type  1   force =     0.00003668   -0.00003644    0.00003668
     atom   63 type  1   force =     0.00000006    0.00000007    0.00000010
     atom   64 type  1   force =    -0.00003653    0.00003658    0.00003650
     atom   65 type  1   force =     0.00000001    0.00000010   -0.00000014
     atom   66 type  1   force =    -0.00004446    0.00004455    0.00004446
     atom   67 type  1   force =     0.00000006    0.00000004   -0.00000462
     atom   68 type  1   force =     0.00004467   -0.00004458    0.00004448
     atom   69 type  1   force =     0.00000023   -0.00000008   -0.00000006
     atom   70 type  1   force =    -0.00004459    0.00004460    0.00004464
     atom   71 type  1   force =    -0.00000004    0.00000007   -0.00000469
     atom   72 type  1   force =     0.00004449   -0.00004442    0.00004449
     atom   73 type  1   force =     0.00000457    0.00000006   -0.00000006
     atom   74 type  1   force =    -0.00004448   -0.00004457   -0.00004453
     atom   75 type  1   force =     0.00000010    0.00000461   -0.00000014
     atom   76 type  1   force =     0.00003659    0.00003663   -0.00003650
     atom   77 type  1   force =     0.00000466   -0.00000009    0.00000009
     atom   78 type  1   force =    -0.00004457   -0.00004457   -0.00004445
     atom   79 type  1   force =    -0.00000007    0.00000476   -0.00000000
     atom   80 type  1   force =     0.00003652    0.00003663   -0.00003662
     atom   81 type  1   force =     0.00000008    0.00000002   -0.00000006
     atom   82 type  1   force =    -0.00004457    0.00004467    0.00004473
     atom   83 type  1   force =     0.00000001    0.00000007   -0.00000461
     atom   84 type  1   force =     0.00004460   -0.00004459    0.00004451
     atom   85 type  1   force =    -0.00000001   -0.00000008    0.00000016
     atom   86 type  1   force =    -0.00004460    0.00004456    0.00004459
     atom   87 type  1   force =    -0.00000009    0.00000008   -0.00000461
     atom   88 type  1   force =     0.00004458   -0.00004454    0.00004452
     atom   89 type  1   force =     0.00000446    0.00000006   -0.00000003
     atom   90 type  1   force =    -0.00004453   -0.00004459   -0.00004460
     atom   91 type  1   force =     0.00000005    0.00000456   -0.00000000
     atom   92 type  1   force =     0.00003662    0.00003661   -0.00003659
     atom   93 type  1   force =     0.00000464   -0.00000003    0.00000013
     atom   94 type  1   force =    -0.00004456   -0.00004472   -0.00004468
     atom   95 type  1   force =     0.00000001    0.00000449   -0.00000014
     atom   96 type  1   force =     0.00003636    0.00003670   -0.00003671
     atom   97 type  1   force =     0.00000008   -0.00000476    0.00000014
     atom   98 type  1   force =     0.00004469    0.00004450   -0.00004443
     atom   99 type  1   force =    -0.00000456    0.00000002   -0.00000001
     atom  100 type  1   force =    -0.00003659   -0.00003649   -0.00003645
     atom  101 type  1   force =    -0.00000009   -0.00000467    0.00000008
     atom  102 type  1   force =     0.00004440    0.00004456   -0.00004451
     atom  103 type  1   force =    -0.00000480    0.00000001    0.00000010
     atom  104 type  1   force =    -0.00003658   -0.00003671   -0.00003649
     atom  105 type  1   force =     0.00000011   -0.00000014    0.00000467
     atom  106 type  1   force =     0.00003665   -0.00003655    0.00003661
     atom  107 type  1   force =     0.00000005   -0.00000002   -0.00000005
     atom  108 type  1   force =    -0.00003653    0.00003657    0.00003651
     atom  109 type  1   force =    -0.00000013    0.00000003    0.00000467
     atom  110 type  1   force =     0.00003647   -0.00003657    0.00003659
     atom  111 type  1   force =    -0.00000010   -0.00000012    0.00000012
     atom  112 type  1   force =    -0.00003664    0.00003648    0.00003669
     atom  113 type  1   force =     0.00000009   -0.00000455    0.00000001
     atom  114 type  1   force =     0.00004477    0.00004465   -0.00004465
     atom  115 type  1   force =    -0.00000451    0.00000008   -0.00000011
     atom  116 type  1   force =    -0.00003654   -0.00003655   -0.00003666
     atom  117 type  1   force =    -0.00000011   -0.00000458    0.00000001
     atom  118 type  1   force =     0.00004441    0.00004457   -0.00004458
     atom  119 type  1   force =    -0.00000465   -0.00000009   -0.00000004
     atom  120 type  1   force =    -0.00003662   -0.00003656   -0.00003655
     atom  121 type  1   force =     0.00000014   -0.00000001    0.00000464
     atom  122 type  1   force =     0.00003673   -0.00003667    0.00003659
     atom  123 type  1   force =     0.00000001    0.00000006   -0.00000003
     atom  124 type  1   force =    -0.00003670    0.00003655    0.00003653
     atom  125 type  1   force =    -0.00000011   -0.00000009    0.00000457
     atom  126 type  1   force =     0.00003636   -0.00003665    0.00003656
     atom  127 type  1   force =    -0.00000010   -0.00000008    0.00000004
     atom  128 type  1   force =    -0.00003660    0.00003656    0.00003662

     Total force =     0.000566     Total SCF correction =     0.000013


     Computing stress (Cartesian axis) and pressure

          total   stress  (Ry/bohr**3)                   (kbar)     P=  -54.02
  -0.00036720  -0.00000000   0.00000000        -54.02     -0.00      0.00
  -0.00000000  -0.00036720  -0.00000000         -0.00    -54.02     -0.00
   0.00000000  -0.00000000  -0.00036720          0.00     -0.00    -54.02


     BFGS Geometry Optimization

     number of scf cycles    =   1
     number of bfgs steps    =   0

     enthalpy new            =   -1456.7227611365 Ry

     new trust radius        =       0.1274611570 bohr
     new conv_thr            =            1.0E-10 Ry

     new unit-cell volume =   4688.07595 a.u.^3 (   694.70117 Ang^3 )
     density =      3.67485 g/cm^3

CELL_PARAMETERS (alat= 26.81370204)
  -0.495409999   0.000000001   0.495409999
  -0.000000001   0.495410000   0.495410000
  -0.495410001   0.495410001  -0.000000001

ATOMIC_POSITIONS (crystal)
C        0.000000005   0.000000009  -0.000000011
C        0.062501663   0.062501666   0.062501659
C       -0.000000170  -0.000000170   0.250000170
C        0.062501669   0.062501660   0.312495011
C        0.000000003  -0.000000002   0.500000008
C        0.062501663   0.062501659   0.562501669
C       -0.000000172  -0.000000165   0.750000166
C        0.062501658   0.062501668   0.812495008
C       -0.000000170   0.250000173  -0.000000175
C        0.062501664   0.312495009   0.062501662
C       -0.000000162   0.250000167   0.250000169
C        0.062495920   0.312501359   0.312501364
C       -0.000000171   0.250000163   0.499999838
C        0.062501660   0.312495012   0.562501667
C       -0.000000175   0.250000171   0.750000171
C        0.062495904   0.312501363   0.812501365
C       -0.000000003   0.500000000  -0.000000001
C        0.062501662   0.562501666   0.062501662
C       -0.000000166   0.499999827   0.250000172
C        0.062501663   0.562501662   0.312495018
C       -0.000000001   0.499999997   0.500000008
C        0.062501656   0.562501660   0.562501664
C       -0.000000178   0.499999828   0.750000171
C        0.062501658   0.562501659   0.812495012
C       -0.000000176   0.750000176  -0.000000178
C        0.062501666   0.812495012   0.062501659
C       -0.000000171   0.750000167   0.250000177
C        0.062495911   0.812501358   0.312501368
C       -0.000000179   0.750000173   0.499999833
C        0.062501655   0.812495018   0.562501665
C       -0.000000176   0.750000182   0.750000166
C        0.062495902   0.812501374   0.812501359
C        0.250000174  -0.000000171  -0.000000169
C        0.312495020   0.062501655   0.062501667
C        0.250000177  -0.000000173   0.250000169
C        0.312501362   0.062495908   0.312501362
C        0.250000166  -0.000000169   0.499999834
C        0.312494996   0.062501667   0.562501662
C        0.250000160  -0.000000166   0.750000170
C        0.312501358   0.062495907   0.812501371
C        0.250000175   0.250000164  -0.000000165
C        0.312501372   0.312501356   0.062495916
C        0.250000007   0.249999997   0.250000006
C        0.312501356   0.312501365   0.312501363
C        0.250000165   0.250000166   0.499999822
C        0.312501359   0.312501368   0.562495900
C        0.249999992   0.250000000   0.750000004
C        0.312501361   0.312501364   0.812501367
C        0.250000177   0.499999830  -0.000000166
C        0.312495019   0.562501663   0.062501661
C        0.250000176   0.499999827   0.250000171
C        0.312501363   0.562495908   0.312501365
C        0.250000170   0.499999834   0.499999818
C        0.312495015   0.562501661   0.562501656
C        0.250000171   0.499999827   0.750000174
C        0.312501366   0.562495911   0.812501364
C        0.250000179   0.750000165  -0.000000173
C        0.312501375   0.812501353   0.062495912
C        0.250000008   0.749999994   0.249999999
C        0.312501362   0.812501368   0.312501360
C        0.250000169   0.750000182   0.499999822
C        0.312501359   0.812501377   0.562495905
C        0.249999999   0.750000009   0.749999997
C        0.312501359   0.812501363   0.812501365
C        0.499999990  -0.000000001   0.000000009
C        0.562501655   0.062501661   0.062501662
C        0.499999824  -0.000000168   0.250000172
C        0.562501656   0.062501662   0.312495013
C        0.499999992   0.000000003   0.499999991
C        0.562501665   0.062501665   0.562501661
C        0.499999824  -0.000000174   0.750000179
C        0.562501657   0.062501662   0.812495025
C        0.499999825   0.250000171  -0.000000166
C        0.562501660   0.312495018   0.062501658
C        0.499999819   0.250000171   0.250000173
C        0.562495908   0.312501369   0.312501363
C        0.499999833   0.250000174   0.499999819
C        0.562501666   0.312495018   0.562501658
C        0.499999825   0.250000175   0.750000181
C        0.562495906   0.312501362   0.812501370
C        0.499999994   0.500000002  -0.000000000
C        0.562501664   0.562501672   0.062501660
C        0.499999825   0.499999831   0.250000174
C        0.562501660   0.562501661   0.312495013
C        0.500000009   0.500000003   0.499999992
C        0.562501665   0.562501662   0.562501662
C        0.499999828   0.499999828   0.750000178
C        0.562501659   0.562501662   0.812495016
C        0.499999830   0.750000168  -0.000000163
C        0.562501661   0.812495013   0.062501661
C        0.499999828   0.750000172   0.250000168
C        0.562495904   0.812501366   0.312501364
C        0.499999833   0.750000177   0.499999821
C        0.562501663   0.812495004   0.562501660
C        0.499999827   0.750000163   0.750000172
C        0.562495906   0.812501356   0.812501381
C        0.750000180  -0.000000169  -0.000000186
C        0.812495016   0.062501669   0.062501650
C        0.750000169  -0.000000169   0.250000171
C        0.812501366   0.062495915   0.312501363
C        0.750000180  -0.000000174   0.499999826
C        0.812495023   0.062501658   0.562501666
C        0.750000182  -0.000000175   0.750000175
C        0.812501372   0.062495906   0.812501356
C        0.750000175   0.250000173  -0.000000183
C        0.812501361   0.312501369   0.062495905
C        0.749999997   0.249999999   0.249999999
C        0.812501360   0.312501363   0.312501365
C        0.750000178   0.250000171   0.499999832
C        0.812501368   0.312501361   0.562495912
C        0.750000013   0.249999996   0.749999995
C        0.812501374   0.312501362   0.812501359
C        0.750000167   0.499999834  -0.000000174
C        0.812495000   0.562501670   0.062501661
C        0.750000161   0.499999831   0.250000175
C        0.812501359   0.562495907   0.312501367
C        0.750000176   0.499999825   0.499999833
C        0.812495019   0.562501656   0.562501668
C        0.750000175   0.499999822   0.750000171
C        0.812501367   0.562495907   0.812501365
C        0.750000168   0.750000178  -0.000000179
C        0.812501362   0.812501367   0.062495898
C        0.749999996   0.750000001   0.250000003
C        0.812501368   0.812501357   0.312501369
C        0.750000177   0.750000163   0.499999830
C        0.812501375   0.812501352   0.562495914
C        0.750000008   0.749999995   0.749999999
C        0.812501368   0.812501364   0.812501363



     Writing output data file c.save
     NEW-OLD atomic charge density approx. for the potential
     extrapolated charge  497.66163, renormalised to  512.00000

     total cpu time spent up to now is      276.6 secs

     per-process dynamical memory:    61.8 Mb

     Self-consistent Calculation

     iteration #  1     ecut=    50.00 Ry     beta=0.70
     CG style diagonalization
     ethr =  1.00E-06,  avg # of iterations =  4.8

     total cpu time spent up to now is      296.9 secs

     total energy              =   -1456.66352850 Ry
     Harris-Foulkes estimate   =   -1446.72665267 Ry
     estimated scf accuracy    <       0.02369287 Ry

     iteration #  2     ecut=    50.00 Ry     beta=0.70
     CG style diagonalization
     ethr =  4.63E-06,  avg # of iterations =  5.0

     total cpu time spent up to now is      315.9 secs

     total energy              =   -1456.70886716 Ry
     Harris-Foulkes estimate   =   -1456.71003233 Ry
     estimated scf accuracy    <       0.00478009 Ry

     iteration #  3     ecut=    50.00 Ry     beta=0.70
     CG style diagonalization
     ethr =  9.34E-07,  avg # of iterations =  3.1

     total cpu time spent up to now is      326.5 secs

     total energy              =   -1456.70820579 Ry
     Harris-Foulkes estimate   =   -1456.70901874 Ry
     estimated scf accuracy    <       0.00184422 Ry

     iteration #  4     ecut=    50.00 Ry     beta=0.70
     CG style diagonalization
     ethr =  3.60E-07,  avg # of iterations =  3.2

     total cpu time spent up to now is      337.6 secs

     total energy              =   -1456.70834042 Ry
     Harris-Foulkes estimate   =   -1456.70834855 Ry
     estimated scf accuracy    <       0.00002358 Ry

     iteration #  5     ecut=    50.00 Ry     beta=0.70
     CG style diagonalization
     ethr =  4.61E-09,  avg # of iterations =  4.6

     total cpu time spent up to now is      355.4 secs

     total energy              =   -1456.70836273 Ry
     Harris-Foulkes estimate   =   -1456.70836210 Ry
     estimated scf accuracy    <       0.00000080 Ry

     iteration #  6     ecut=    50.00 Ry     beta=0.70
     CG style diagonalization
     ethr =  1.55E-10,  avg # of iterations =  4.2

     total cpu time spent up to now is      370.3 secs

     total energy              =   -1456.70836260 Ry
     Harris-Foulkes estimate   =   -1456.70836294 Ry
     estimated scf accuracy    <       0.00000085 Ry

     iteration #  7     ecut=    50.00 Ry     beta=0.70
     CG style diagonalization
     ethr =  1.55E-10,  avg # of iterations =  3.2

     total cpu time spent up to now is      381.3 secs

     total energy              =   -1456.70836267 Ry
     Harris-Foulkes estimate   =   -1456.70836266 Ry
     estimated scf accuracy    <       0.00000003 Ry

     iteration #  8     ecut=    50.00 Ry     beta=0.70
     CG style diagonalization
     c_bands:  3 eigenvalues not converged
     ethr =  5.20E-12,  avg # of iterations =  4.5

     total cpu time spent up to now is      399.8 secs

     total energy              = -1456.708362673274905 Ry
     Harris-Foulkes estimate   =   -1456.70836267 Ry
     estimated scf accuracy    <          4.8E-10 Ry

     iteration #  9     ecut=    50.00 Ry     beta=0.70
     CG style diagonalization
     c_bands:  5 eigenvalues not converged
     ethr =  1.00E-13,  avg # of iterations =  5.0

     total cpu time spent up to now is      420.1 secs

     End of self-consistent calculation

          k = 0.0000 0.0000 0.0000 ( 28763 PWs)   bands (ev):

    -7.8993  -6.1322  -6.1322  -6.1322  -6.1322  -6.1322  -6.1322  -6.1322
    -6.1322  -5.5466  -5.5466  -5.5466  -5.5462  -5.5462  -5.5462  -3.2871
    -3.2871  -3.2871  -3.2869  -3.2869  -3.2869  -3.2869  -3.2869  -3.2869
    -3.2865  -3.2865  -3.2865  -1.8679  -1.8679  -1.8679  -1.8673  -1.6714
    -1.6714  -1.6714  -1.6714  -1.6714  -1.6714  -1.6714  -1.6714  -1.6714
    -1.6714  -1.6714  -1.6714  -1.6714  -1.6714  -1.6714  -1.6714  -1.6713
    -1.6713  -1.6713  -1.6713  -1.6711  -1.6711  -1.6711  -1.6711   0.3020
     0.3023   0.3023   0.3023   1.0953   1.0953   1.0955   1.0955   1.0955
     1.0958   1.9596   1.9596   1.9596   1.9599   1.9599   1.9599   1.9599
     1.9599   1.9599   1.9601   1.9601   1.9601   3.0659   3.0659   3.0659
     3.0659   3.0660   3.0660   3.0660   3.0660   3.0660   3.0660   3.0660
     3.0660   3.0660   3.0660   3.0660   3.0660   3.0661   3.0661   3.0661
     3.0661   3.0661   3.0661   3.0661   3.0661   5.2535   5.2535   5.2535
     5.2535   5.2535   5.2535   5.2536   5.2536   5.2536   5.2537   5.2537
     5.2537   5.4650   5.4650   5.4650   5.4651   5.4651   5.4651   5.4651
     5.4651   5.4651   5.4651   5.4651   5.4651   6.2595   6.2595   6.2595
     6.2597   6.2597   6.2597   6.2598   6.2598   6.2598   6.2598   6.2598
     6.2598   7.2031   7.2031   7.2031   7.2031   7.2031   7.2031   7.2031
     7.2031   7.2031   7.2031   7.2031   7.2031   7.2031   7.2031   7.2031
     7.2031   7.2034   7.2034   7.2034   7.2034   7.2035   7.2035   7.2035
     7.2035   7.3739   7.3739   7.3739   7.3739   7.3740   7.3740   7.3740
     7.3740   7.6066   7.6066   7.6066   7.6068   7.6068   7.6068   9.0849
     9.0849   9.0849   9.0849   9.0850   9.0850   9.0850   9.0850   9.0850
     9.0850   9.0850   9.0850   9.0850   9.0850   9.0850   9.0850   9.0851
     9.0851   9.0851   9.0851   9.0851   9.0851   9.0851   9.0851   9.6147
     9.6147   9.6147   9.6149   9.6149   9.6149   9.8683   9.8683   9.8683
     9.8683   9.8683   9.8683   9.8688   9.8688   9.8688   9.8688   9.8688
     9.8688  11.0421  11.0421  11.0421  11.0425  11.0425  11.0425  11.0427
    11.0427  11.0427  11.0427  11.0427  11.0427  11.2598  11.2598  11.2601
    11.2601  11.2601  11.2605  11.2605  11.2605  12.3550  12.3550  12.3550
    12.3550  12.3550  12.3550  12.3550  12.3550  12.3551  12.3551  12.3551
    12.3551  12.3551  12.3551  12.3551  12.3551  14.1938  14.1938  14.1938
    18.7531  18.7531  18.7531  18.7533  18.7533  18.7533  19.0496  19.0502
    19.0502  19.0502  19.0506  19.0506  19.9078  19.9078  19.9078  20.4164
    20.4164  20.4164  20.4164  20.4165  20.4165  20.4165  20.4165  20.4169
    20.4169  20.4169  20.4169  20.4169  20.4169  20.4169  20.4169  20.4169
    20.4169  20.4169  20.4169  20.4169  20.4169  20.4169  20.4169  22.2080
    22.2080  22.2080  22.2080  22.2080

     highest occupied, lowest unoccupied level (ev):    14.1938   18.7531

!    total energy              = -1456.708362673458851 Ry
     Harris-Foulkes estimate   =   -1456.70836267 Ry
     estimated scf accuracy    <          6.9E-11 Ry

     The total energy is the sum of the following terms:

     one-electron contribution =     542.95207481 Ry
     hartree contribution      =     121.85625896 Ry
     xc contribution           =    -460.51875724 Ry
     ewald contribution        =   -1660.99793920 Ry

     convergence has been achieved in   9 iterations

     Forces acting on atoms (cartesian axes, Ry/au):

     atom    1 type  1   force =    -0.00000005   -0.00000001   -0.00000016
     atom    2 type  1   force =     0.00002158   -0.00002162   -0.00002166
     atom    3 type  1   force =    -0.00000006   -0.00000004    0.00000203
     atom    4 type  1   force =    -0.00002168    0.00002165   -0.00002166
     atom    5 type  1   force =     0.00000010   -0.00000009    0.00000005
     atom    6 type  1   force =     0.00002174   -0.00002165   -0.00002161
     atom    7 type  1   force =    -0.00000008    0.00000000    0.00000199
     atom    8 type  1   force =    -0.00002167    0.00002161   -0.00002163
     atom    9 type  1   force =    -0.00000201    0.00000002   -0.00000004
     atom   10 type  1   force =     0.00002158    0.00002169    0.00002173
     atom   11 type  1   force =     0.00000006   -0.00000193   -0.00000003
     atom   12 type  1   force =    -0.00001488   -0.00001491    0.00001487
     atom   13 type  1   force =    -0.00000192   -0.00000002    0.00000014
     atom   14 type  1   force =     0.00002169    0.00002157    0.00002159
     atom   15 type  1   force =    -0.00000007   -0.00000205    0.00000010
     atom   16 type  1   force =    -0.00001497   -0.00001499    0.00001499
     atom   17 type  1   force =    -0.00000002    0.00000003   -0.00000003
     atom   18 type  1   force =     0.00002161   -0.00002169   -0.00002165
     atom   19 type  1   force =     0.00000005    0.00000003    0.00000195
     atom   20 type  1   force =    -0.00002162    0.00002156   -0.00002159
     atom   21 type  1   force =     0.00000002   -0.00000007    0.00000002
     atom   22 type  1   force =     0.00002152   -0.00002158   -0.00002147
     atom   23 type  1   force =    -0.00000009   -0.00000004    0.00000210
     atom   24 type  1   force =    -0.00002166    0.00002169   -0.00002150
     atom   25 type  1   force =    -0.00000212    0.00000003    0.00000001
     atom   26 type  1   force =     0.00002166    0.00002172    0.00002158
     atom   27 type  1   force =     0.00000002   -0.00000208    0.00000007
     atom   28 type  1   force =    -0.00001488   -0.00001495    0.00001503
     atom   29 type  1   force =    -0.00000214   -0.00000012    0.00000007
     atom   30 type  1   force =     0.00002157    0.00002154    0.00002168
     atom   31 type  1   force =    -0.00000012   -0.00000212   -0.00000007
     atom   32 type  1   force =    -0.00001502   -0.00001503    0.00001499
     atom   33 type  1   force =    -0.00000002    0.00000196   -0.00000009
     atom   34 type  1   force =    -0.00002151   -0.00002154    0.00002161
     atom   35 type  1   force =     0.00000206    0.00000001   -0.00000005
     atom   36 type  1   force =     0.00001485    0.00001505    0.00001496
     atom   37 type  1   force =     0.00000011    0.00000193    0.00000002
     atom   38 type  1   force =    -0.00002185   -0.00002166    0.00002177
     atom   39 type  1   force =     0.00000186   -0.00000000    0.00000007
     atom   40 type  1   force =     0.00001501    0.00001486    0.00001493
     atom   41 type  1   force =     0.00000004    0.00000002   -0.00000200
     atom   42 type  1   force =    -0.00001471    0.00001503   -0.00001496
     atom   43 type  1   force =     0.00000017   -0.00000007   -0.00000009
     atom   44 type  1   force =     0.00001483   -0.00001493   -0.00001492
     atom   45 type  1   force =    -0.00000007    0.00000017   -0.00000195
     atom   46 type  1   force =    -0.00001504    0.00001492   -0.00001500
     atom   47 type  1   force =     0.00000002   -0.00000007    0.00000011
     atom   48 type  1   force =     0.00001497   -0.00001491   -0.00001494
     atom   49 type  1   force =     0.00000007    0.00000196   -0.00000008
     atom   50 type  1   force =    -0.00002164   -0.00002161    0.00002150
     atom   51 type  1   force =     0.00000212    0.00000005   -0.00000006
     atom   52 type  1   force =     0.00001495    0.00001492    0.00001500
     atom   53 type  1   force =    -0.00000008    0.00000211   -0.00000010
     atom   54 type  1   force =    -0.00002170   -0.00002155    0.00002167
     atom   55 type  1   force =     0.00000208   -0.00000003    0.00000000
     atom   56 type  1   force =     0.00001498    0.00001498    0.00001490
     atom   57 type  1   force =     0.00000004    0.00000010   -0.00000202
     atom   58 type  1   force =    -0.00001473    0.00001502   -0.00001496
     atom   59 type  1   force =     0.00000008    0.00000008   -0.00000006
     atom   60 type  1   force =     0.00001487   -0.00001493   -0.00001495
     atom   61 type  1   force =    -0.00000006   -0.00000003   -0.00000214
     atom   62 type  1   force =    -0.00001500    0.00001485   -0.00001500
     atom   63 type  1   force =     0.00000002   -0.00000006   -0.00000010
     atom   64 type  1   force =     0.00001496   -0.00001494   -0.00001487
     atom   65 type  1   force =    -0.00000007   -0.00000010    0.00000009
     atom   66 type  1   force =     0.00002144   -0.00002160   -0.00002144
     atom   67 type  1   force =    -0.00000001   -0.00000010    0.00000203
     atom   68 type  1   force =    -0.00002166    0.00002161   -0.00002154
     atom   69 type  1   force =    -0.00000021    0.00000010   -0.00000003
     atom   70 type  1   force =     0.00002165   -0.00002172   -0.00002173
     atom   71 type  1   force =    -0.00000000   -0.00000003    0.00000207
     atom   72 type  1   force =    -0.00002161    0.00002152   -0.00002150
     atom   73 type  1   force =    -0.00000205   -0.00000010    0.00000004
     atom   74 type  1   force =     0.00002154    0.00002160    0.00002158
     atom   75 type  1   force =    -0.00000005   -0.00000203    0.00000014
     atom   76 type  1   force =    -0.00001487   -0.00001505    0.00001490
     atom   77 type  1   force =    -0.00000208    0.00000013   -0.00000008
     atom   78 type  1   force =     0.00002159    0.00002168    0.00002149
     atom   79 type  1   force =     0.00000006   -0.00000218   -0.00000000
     atom   80 type  1   force =    -0.00001499   -0.00001498    0.00001507
     atom   81 type  1   force =    -0.00000012    0.00000002    0.00000014
     atom   82 type  1   force =     0.00002167   -0.00002171   -0.00002184
     atom   83 type  1   force =     0.00000001   -0.00000006    0.00000207
     atom   84 type  1   force =    -0.00002160    0.00002166   -0.00002155
     atom   85 type  1   force =     0.00000002    0.00000009   -0.00000016
     atom   86 type  1   force =     0.00002162   -0.00002157   -0.00002163
     atom   87 type  1   force =     0.00000006   -0.00000009    0.00000204
     atom   88 type  1   force =    -0.00002171    0.00002153   -0.00002162
     atom   89 type  1   force =    -0.00000194   -0.00000004    0.00000004
     atom   90 type  1   force =     0.00002161    0.00002169    0.00002165
     atom   91 type  1   force =    -0.00000003   -0.00000202    0.00000001
     atom   92 type  1   force =    -0.00001497   -0.00001503    0.00001500
     atom   93 type  1   force =    -0.00000202   -0.00000002   -0.00000015
     atom   94 type  1   force =     0.00002158    0.00002176    0.00002180
     atom   95 type  1   force =    -0.00000003   -0.00000188    0.00000012
     atom   96 type  1   force =    -0.00001476   -0.00001513    0.00001506
     atom   97 type  1   force =     0.00000002    0.00000216   -0.00000011
     atom   98 type  1   force =    -0.00002176   -0.00002163    0.00002150
     atom   99 type  1   force =     0.00000199   -0.00000005    0.00000002
     atom  100 type  1   force =     0.00001498    0.00001486    0.00001482
     atom  101 type  1   force =    -0.00000003    0.00000211   -0.00000007
     atom  102 type  1   force =    -0.00002156   -0.00002158    0.00002155
     atom  103 type  1   force =     0.00000225    0.00000001   -0.00000014
     atom  104 type  1   force =     0.00001496    0.00001505    0.00001498
     atom  105 type  1   force =    -0.00000003    0.00000012   -0.00000205
     atom  106 type  1   force =    -0.00001494    0.00001492   -0.00001499
     atom  107 type  1   force =     0.00000001    0.00000003    0.00000009
     atom  108 type  1   force =     0.00001489   -0.00001496   -0.00001485
     atom  109 type  1   force =     0.00000007   -0.00000003   -0.00000209
     atom  110 type  1   force =    -0.00001486    0.00001492   -0.00001492
     atom  111 type  1   force =     0.00000008    0.00000011   -0.00000013
     atom  112 type  1   force =     0.00001504   -0.00001489   -0.00001506
     atom  113 type  1   force =    -0.00000003    0.00000201    0.00000001
     atom  114 type  1   force =    -0.00002184   -0.00002163    0.00002171
     atom  115 type  1   force =     0.00000196   -0.00000008    0.00000009
     atom  116 type  1   force =     0.00001490    0.00001490    0.00001495
     atom  117 type  1   force =     0.00000005    0.00000201   -0.00000002
     atom  118 type  1   force =    -0.00002154   -0.00002163    0.00002161
     atom  119 type  1   force =     0.00000204    0.00000010    0.00000005
     atom  120 type  1   force =     0.00001500    0.00001495    0.00001488
     atom  121 type  1   force =    -0.00000005    0.00000001   -0.00000211
     atom  122 type  1   force =    -0.00001505    0.00001504   -0.00001497
     atom  123 type  1   force =     0.00000005   -0.00000009    0.00000004
     atom  124 type  1   force =     0.00001511   -0.00001490   -0.00001490
     atom  125 type  1   force =    -0.00000001    0.00000006   -0.00000205
     atom  126 type  1   force =    -0.00001464    0.00001506   -0.00001498
     atom  127 type  1   force =     0.00000006    0.00000011   -0.00000007
     atom  128 type  1   force =     0.00001498   -0.00001492   -0.00001500

     Total force =     0.000258     Total SCF correction =     0.000014


     Computing stress (Cartesian axis) and pressure

          total   stress  (Ry/bohr**3)                   (kbar)     P=   89.09
   0.00060562   0.00000000  -0.00000000         89.09      0.00     -0.00
   0.00000000   0.00060562  -0.00000000          0.00     89.09     -0.00
  -0.00000000  -0.00000000   0.00060562         -0.00     -0.00     89.09


     number of scf cycles    =   2
     number of bfgs steps    =   1

     enthalpy old            =   -1456.7227611365 Ry
     enthalpy new            =   -1456.7083626735 Ry

     CASE: enthalpy_new > enthalpy_old

     new trust radius        =       0.0489706034 bohr
     new conv_thr            =            1.0E-10 Ry

     new unit-cell volume =   4768.54291 a.u.^3 (   706.62515 Ang^3 )
     density =      3.61284 g/cm^3

CELL_PARAMETERS (alat= 26.81370204)
  -0.498228370   0.000000000   0.498228370
  -0.000000000   0.498228371   0.498228370
  -0.498228371   0.498228371  -0.000000000

ATOMIC_POSITIONS (crystal)
C        0.000000002   0.000000003  -0.000000004
C        0.062500642   0.062500643   0.062500640
C       -0.000000066  -0.000000066   0.250000065
C        0.062500644   0.062500641   0.312498074
C        0.000000001  -0.000000001   0.500000003
C        0.062500642   0.062500640   0.562500644
C       -0.000000067  -0.000000064   0.750000064
C        0.062500640   0.062500644   0.812498073
C       -0.000000065   0.250000067  -0.000000068
C        0.062500642   0.312498073   0.062500641
C       -0.000000063   0.250000065   0.250000065
C        0.062498425   0.312500524   0.312500527
C       -0.000000066   0.250000063   0.499999937
C        0.062500641   0.312498075   0.562500643
C       -0.000000068   0.250000066   0.750000066
C        0.062498419   0.312500526   0.812500527
C       -0.000000001   0.500000000  -0.000000000
C        0.062500642   0.562500643   0.062500641
C       -0.000000064   0.499999933   0.250000066
C        0.062500642   0.562500641   0.312498077
C       -0.000000000   0.499999999   0.500000003
C        0.062500639   0.562500641   0.562500642
C       -0.000000069   0.499999933   0.750000066
C        0.062500640   0.562500640   0.812498075
C       -0.000000068   0.750000068  -0.000000069
C        0.062500643   0.812498075   0.062500640
C       -0.000000066   0.750000064   0.250000068
C        0.062498422   0.812500524   0.312500528
C       -0.000000069   0.750000067   0.499999935
C        0.062500639   0.812498077   0.562500643
C       -0.000000068   0.750000070   0.750000064
C        0.062498418   0.812500530   0.812500525
C        0.250000067  -0.000000066  -0.000000065
C        0.312498078   0.062500639   0.062500643
C        0.250000068  -0.000000067   0.250000065
C        0.312500526   0.062498420   0.312500526
C        0.250000064  -0.000000065   0.499999936
C        0.312498068   0.062500643   0.562500641
C        0.250000062  -0.000000064   0.750000065
C        0.312500524   0.062498420   0.812500529
C        0.250000067   0.250000063  -0.000000064
C        0.312500529   0.312500523   0.062498424
C        0.250000003   0.249999999   0.250000002
C        0.312500524   0.312500527   0.312500526
C        0.250000064   0.250000064   0.499999931
C        0.312500525   0.312500528   0.562498418
C        0.249999997   0.250000000   0.750000002
C        0.312500525   0.312500526   0.812500528
C        0.250000068   0.499999934  -0.000000064
C        0.312498077   0.562500642   0.062500641
C        0.250000068   0.499999933   0.250000066
C        0.312500526   0.562498420   0.312500527
C        0.250000066   0.499999936   0.499999930
C        0.312498076   0.562500641   0.562500639
C        0.250000066   0.499999933   0.750000067
C        0.312500527   0.562498422   0.812500526
C        0.250000069   0.750000064  -0.000000067
C        0.312500531   0.812500522   0.062498422
C        0.250000003   0.749999998   0.250000000
C        0.312500526   0.812500528   0.312500525
C        0.250000065   0.750000070   0.499999931
C        0.312500524   0.812500531   0.562498420
C        0.250000000   0.750000003   0.749999999
C        0.312500525   0.812500526   0.812500527
C        0.499999996  -0.000000000   0.000000003
C        0.562500639   0.062500641   0.062500641
C        0.499999932  -0.000000065   0.250000066
C        0.562500639   0.062500642   0.312498075
C        0.499999997   0.000000001   0.499999996
C        0.562500642   0.062500643   0.562500641
C        0.499999932  -0.000000067   0.750000069
C        0.562500639   0.062500641   0.812498080
C        0.499999932   0.250000066  -0.000000064
C        0.562500641   0.312498077   0.062500640
C        0.499999930   0.250000066   0.250000067
C        0.562498421   0.312500529   0.312500526
C        0.499999935   0.250000067   0.499999930
C        0.562500643   0.312498077   0.562500640
C        0.499999932   0.250000067   0.750000070
C        0.562498420   0.312500526   0.812500529
C        0.499999998   0.500000001  -0.000000000
C        0.562500642   0.562500645   0.062500641
C        0.499999932   0.499999935   0.250000067
C        0.562500641   0.562500641   0.312498075
C        0.500000004   0.500000001   0.499999997
C        0.562500642   0.562500641   0.562500641
C        0.499999934   0.499999934   0.750000069
C        0.562500640   0.562500641   0.812498076
C        0.499999934   0.750000065  -0.000000063
C        0.562500641   0.812498075   0.062500641
C        0.499999934   0.750000066   0.250000065
C        0.562498419   0.812500527   0.312500527
C        0.499999936   0.750000068   0.499999931
C        0.562500642   0.812498072   0.562500641
C        0.499999933   0.750000063   0.750000066
C        0.562498420   0.812500523   0.812500533
C        0.750000069  -0.000000065  -0.000000072
C        0.812498076   0.062500644   0.062500637
C        0.750000065  -0.000000065   0.250000066
C        0.812500527   0.062498423   0.312500526
C        0.750000070  -0.000000067   0.499999933
C        0.812498079   0.062500640   0.562500643
C        0.750000070  -0.000000067   0.750000068
C        0.812500530   0.062498420   0.812500523
C        0.750000068   0.250000067  -0.000000071
C        0.812500526   0.312500528   0.062498419
C        0.749999999   0.250000000   0.250000000
C        0.812500525   0.312500526   0.312500527
C        0.750000069   0.250000066   0.499999935
C        0.812500528   0.312500525   0.562498422
C        0.750000005   0.249999999   0.749999998
C        0.812500530   0.312500526   0.812500524
C        0.750000064   0.499999936  -0.000000067
C        0.812498070   0.562500644   0.062500641
C        0.750000062   0.499999935   0.250000068
C        0.812500524   0.562498420   0.312500528
C        0.750000068   0.499999933   0.499999935
C        0.812498077   0.562500639   0.562500644
C        0.750000068   0.499999931   0.750000066
C        0.812500527   0.562498420   0.812500527
C        0.750000065   0.750000069  -0.000000069
C        0.812500526   0.812500528   0.062498417
C        0.749999999   0.750000001   0.250000001
C        0.812500528   0.812500524   0.312500529
C        0.750000068   0.750000063   0.499999935
C        0.812500531   0.812500522   0.562498423
C        0.750000003   0.749999998   0.750000000
C        0.812500528   0.812500526   0.812500526



     Writing output data file c.save
     NEW-OLD atomic charge density approx. for the potential
     extrapolated charge  520.62472, renormalised to  512.00000

     total cpu time spent up to now is      425.0 secs

     per-process dynamical memory:    61.8 Mb

     Self-consistent Calculation

     iteration #  1     ecut=    50.00 Ry     beta=0.70
     CG style diagonalization
     ethr =  1.00E-06,  avg # of iterations =  4.1

     total cpu time spent up to now is      446.6 secs

     total energy              =   -1456.71602674 Ry
     Harris-Foulkes estimate   =   -1462.67264448 Ry
     estimated scf accuracy    <       0.00774513 Ry

     iteration #  2     ecut=    50.00 Ry     beta=0.70
     CG style diagonalization
     ethr =  1.51E-06,  avg # of iterations =  5.0

     total cpu time spent up to now is      466.5 secs

     total energy              =   -1456.73252941 Ry
     Harris-Foulkes estimate   =   -1456.73300657 Ry
     estimated scf accuracy    <       0.00196363 Ry

     iteration #  3     ecut=    50.00 Ry     beta=0.70
     CG style diagonalization
     ethr =  3.84E-07,  avg # of iterations =  3.1

     total cpu time spent up to now is      476.9 secs

     total energy              =   -1456.73222862 Ry
     Harris-Foulkes estimate   =   -1456.73258477 Ry
     estimated scf accuracy    <       0.00079729 Ry

     iteration #  4     ecut=    50.00 Ry     beta=0.70
     CG style diagonalization
     ethr =  1.56E-07,  avg # of iterations =  3.2

     total cpu time spent up to now is      487.5 secs

     total energy              =   -1456.73228259 Ry
     Harris-Foulkes estimate   =   -1456.73228796 Ry
     estimated scf accuracy    <       0.00001373 Ry

     iteration #  5     ecut=    50.00 Ry     beta=0.70
     CG style diagonalization
     ethr =  2.68E-09,  avg # of iterations =  4.6

     total cpu time spent up to now is      504.7 secs

     total energy              =   -1456.73229219 Ry
     Harris-Foulkes estimate   =   -1456.73229206 Ry
     estimated scf accuracy    <       0.00000035 Ry

     iteration #  6     ecut=    50.00 Ry     beta=0.70
     CG style diagonalization
     ethr =  6.91E-11,  avg # of iterations =  3.9

     total cpu time spent up to now is      518.5 secs

     total energy              =   -1456.73229231 Ry
     Harris-Foulkes estimate   =   -1456.73229228 Ry
     estimated scf accuracy    <       0.00000025 Ry

     iteration #  7     ecut=    50.00 Ry     beta=0.70
     CG style diagonalization
     ethr =  4.79E-11,  avg # of iterations =  3.2

     total cpu time spent up to now is      529.3 secs

     total energy              =   -1456.73229232 Ry
     Harris-Foulkes estimate   =   -1456.73229232 Ry
     estimated scf accuracy    <       0.00000002 Ry

     iteration #  8     ecut=    50.00 Ry     beta=0.70
     CG style diagonalization
     c_bands:  1 eigenvalues not converged
     ethr =  4.32E-12,  avg # of iterations =  3.5

     total cpu time spent up to now is      541.9 secs

     total energy              = -1456.732292323154297 Ry
     Harris-Foulkes estimate   =   -1456.73229232 Ry
     estimated scf accuracy    <          5.2E-09 Ry

     iteration #  9     ecut=    50.00 Ry     beta=0.70
     CG style diagonalization
     c_bands:  5 eigenvalues not converged
     ethr =  1.01E-12,  avg # of iterations =  4.2

     total cpu time spent up to now is      557.8 secs

     total energy              = -1456.732292324158607 Ry
     Harris-Foulkes estimate   =   -1456.73229232 Ry
     estimated scf accuracy    <          2.1E-10 Ry

     iteration # 10     ecut=    50.00 Ry     beta=0.70
     CG style diagonalization
     c_bands:  5 eigenvalues not converged
     ethr =  1.00E-13,  avg # of iterations =  4.4

     total cpu time spent up to now is      575.3 secs

     End of self-consistent calculation

          k = 0.0000 0.0000 0.0000 ( 28763 PWs)   bands (ev):

    -7.9815  -6.2351  -6.2351  -6.2351  -6.2351  -6.2351  -6.2351  -6.2351
    -6.2351  -5.6560  -5.6560  -5.6560  -5.6558  -5.6558  -5.6558  -3.4259
    -3.4259  -3.4259  -3.4259  -3.4259  -3.4259  -3.4259  -3.4259  -3.4259
    -3.4257  -3.4257  -3.4257  -2.0507  -2.0507  -2.0507  -2.0505  -1.8340
    -1.8340  -1.8340  -1.8340  -1.8340  -1.8340  -1.8340  -1.8340  -1.8340
    -1.8340  -1.8340  -1.8340  -1.8340  -1.8340  -1.8340  -1.8340  -1.8340
    -1.8340  -1.8340  -1.8340  -1.8338  -1.8338  -1.8338  -1.8338   0.1820
     0.1821   0.1821   0.1821   0.9041   0.9041   0.9042   0.9042   0.9042
     0.9043   1.7390   1.7390   1.7390   1.7391   1.7391   1.7391   1.7391
     1.7391   1.7391   1.7392   1.7392   1.7392   2.8783   2.8783   2.8783
     2.8783   2.8783   2.8783   2.8783   2.8783   2.8783   2.8783   2.8783
     2.8783   2.8783   2.8783   2.8783   2.8783   2.8783   2.8783   2.8783
     2.8783   2.8783   2.8783   2.8783   2.8783   5.0267   5.0267   5.0267
     5.0267   5.0267   5.0267   5.0268   5.0268   5.0268   5.0268   5.0268
     5.0268   5.3031   5.3031   5.3031   5.3031   5.3031   5.3031   5.3031
     5.3031   5.3031   5.3031   5.3031   5.3031   6.0661   6.0661   6.0661
     6.0662   6.0662   6.0662   6.0662   6.0662   6.0662   6.0662   6.0662
     6.0662   6.9807   6.9807   6.9807   6.9807   6.9807   6.9807   6.9807
     6.9807   6.9808   6.9808   6.9808   6.9808   6.9808   6.9808   6.9808
     6.9808   6.9808   6.9808   6.9808   6.9808   6.9809   6.9809   6.9809
     6.9809   7.1433   7.1433   7.1433   7.1433   7.1433   7.1433   7.1433
     7.1433   7.3999   7.3999   7.3999   7.4000   7.4000   7.4000   8.8552
     8.8552   8.8552   8.8552   8.8553   8.8553   8.8553   8.8553   8.8553
     8.8553   8.8553   8.8553   8.8553   8.8553   8.8553   8.8553   8.8553
     8.8553   8.8553   8.8553   8.8553   8.8553   8.8553   8.8553   9.3217
     9.3217   9.3217   9.3218   9.3218   9.3218   9.6289   9.6289   9.6289
     9.6289   9.6289   9.6289   9.6290   9.6290   9.6290   9.6290   9.6290
     9.6290  10.7809  10.7809  10.7809  10.7811  10.7811  10.7811  10.7811
    10.7811  10.7811  10.7811  10.7811  10.7811  10.9928  10.9928  10.9929
    10.9929  10.9929  10.9930  10.9930  10.9930  12.0728  12.0728  12.0728
    12.0728  12.0728  12.0728  12.0728  12.0728  12.0729  12.0729  12.0729
    12.0729  12.0729  12.0729  12.0729  12.0729  13.8824  13.8824  13.8824
    18.3963  18.3963  18.3963  18.3963  18.3963  18.3963  18.6988  18.6991
    18.6991  18.6991  18.6992  18.6992  19.5489  19.5489  19.5489  20.0504
    20.0504  20.0504  20.0504  20.0505  20.0505  20.0505  20.0505  20.0506
    20.0506  20.0506  20.0506  20.0506  20.0506  20.0506  20.0506  20.0506
    20.0506  20.0506  20.0506  20.0506  20.0506  20.0506  20.0506  21.8162
    21.8162  21.8162  21.8162  21.8162

     highest occupied, lowest unoccupied level (ev):    13.8824   18.3963

!    total energy              = -1456.732292324214541 Ry
     Harris-Foulkes estimate   =   -1456.73229232 Ry
     estimated scf accuracy    <          9.5E-11 Ry

     The total energy is the sum of the following terms:

     one-electron contribution =     530.67380620 Ry
     hartree contribution      =     122.90534197 Ry
     xc contribution           =    -458.70940786 Ry
     ewald contribution        =   -1651.60203263 Ry

     convergence has been achieved in  10 iterations

     Forces acting on atoms (cartesian axes, Ry/au):

     atom    1 type  1   force =    -0.00000001    0.00000002   -0.00000006
     atom    2 type  1   force =    -0.00001957    0.00001957    0.00001955
     atom    3 type  1   force =    -0.00000000    0.00000000   -0.00000209
     atom    4 type  1   force =     0.00001957   -0.00001964    0.00001962
     atom    5 type  1   force =     0.00000005   -0.00000003    0.00000001
     atom    6 type  1   force =    -0.00001961    0.00001952    0.00001950
     atom    7 type  1   force =    -0.00000004    0.00000002   -0.00000210
     atom    8 type  1   force =     0.00001955   -0.00001956    0.00001960
     atom    9 type  1   force =     0.00000207    0.00000002   -0.00000000
     atom   10 type  1   force =    -0.00001955   -0.00001954   -0.00001957
     atom   11 type  1   force =     0.00000005    0.00000210   -0.00000004
     atom   12 type  1   force =     0.00001714    0.00001713   -0.00001714
     atom   13 type  1   force =     0.00000212    0.00000000    0.00000004
     atom   14 type  1   force =    -0.00001958   -0.00001954   -0.00001953
     atom   15 type  1   force =    -0.00000003    0.00000211    0.00000002
     atom   16 type  1   force =     0.00001711    0.00001711   -0.00001710
     atom   17 type  1   force =     0.00000001   -0.00000000    0.00000000
     atom   18 type  1   force =    -0.00001955    0.00001957    0.00001957
     atom   19 type  1   force =     0.00000003    0.00000003   -0.00000210
     atom   20 type  1   force =     0.00001955   -0.00001960    0.00001956
     atom   21 type  1   force =     0.00000003   -0.00000001    0.00000001
     atom   22 type  1   force =    -0.00001960    0.00001953    0.00001961
     atom   23 type  1   force =    -0.00000003    0.00000001   -0.00000205
     atom   24 type  1   force =     0.00001956   -0.00001965    0.00001963
     atom   25 type  1   force =     0.00000203    0.00000001    0.00000002
     atom   26 type  1   force =    -0.00001958   -0.00001956   -0.00001955
     atom   27 type  1   force =     0.00000001    0.00000209    0.00000003
     atom   28 type  1   force =     0.00001713    0.00001713   -0.00001707
     atom   29 type  1   force =     0.00000205   -0.00000004    0.00000003
     atom   30 type  1   force =    -0.00001956   -0.00001963   -0.00001957
     atom   31 type  1   force =    -0.00000007    0.00000205   -0.00000004
     atom   32 type  1   force =     0.00001709    0.00001706   -0.00001712
     atom   33 type  1   force =     0.00000001   -0.00000209   -0.00000001
     atom   34 type  1   force =     0.00001961    0.00001960   -0.00001960
     atom   35 type  1   force =    -0.00000208    0.00000001   -0.00000000
     atom   36 type  1   force =    -0.00001714   -0.00001709   -0.00001712
     atom   37 type  1   force =     0.00000002   -0.00000211    0.00000003
     atom   38 type  1   force =     0.00001949    0.00001957   -0.00001951
     atom   39 type  1   force =    -0.00000212   -0.00000000    0.00000002
     atom   40 type  1   force =    -0.00001713   -0.00001715   -0.00001712
     atom   41 type  1   force =     0.00000003    0.00000002    0.00000213
     atom   42 type  1   force =     0.00001719   -0.00001710    0.00001710
     atom   43 type  1   force =     0.00000004   -0.00000001   -0.00000002
     atom   44 type  1   force =    -0.00001714    0.00001710    0.00001711
     atom   45 type  1   force =    -0.00000005    0.00000007    0.00000216
     atom   46 type  1   force =     0.00001709   -0.00001713    0.00001711
     atom   47 type  1   force =    -0.00000000   -0.00000002    0.00000004
     atom   48 type  1   force =    -0.00001714    0.00001715    0.00001713
     atom   49 type  1   force =     0.00000005   -0.00000211   -0.00000001
     atom   50 type  1   force =     0.00001954    0.00001956   -0.00001970
     atom   51 type  1   force =    -0.00000207    0.00000002   -0.00000001
     atom   52 type  1   force =    -0.00001711   -0.00001714   -0.00001712
     atom   53 type  1   force =    -0.00000004   -0.00000203   -0.00000002
     atom   54 type  1   force =     0.00001956    0.00001961   -0.00001964
     atom   55 type  1   force =    -0.00000203    0.00000000    0.00000003
     atom   56 type  1   force =    -0.00001708   -0.00001709   -0.00001715
     atom   57 type  1   force =     0.00000003    0.00000003    0.00000209
     atom   58 type  1   force =     0.00001720   -0.00001710    0.00001714
     atom   59 type  1   force =     0.00000004    0.00000003   -0.00000000
     atom   60 type  1   force =    -0.00001713    0.00001711    0.00001710
     atom   61 type  1   force =    -0.00000005   -0.00000004    0.00000204
     atom   62 type  1   force =     0.00001708   -0.00001715    0.00001708
     atom   63 type  1   force =    -0.00000001   -0.00000000   -0.00000003
     atom   64 type  1   force =    -0.00001708    0.00001714    0.00001714
     atom   65 type  1   force =     0.00000000   -0.00000002    0.00000003
     atom   66 type  1   force =    -0.00001964    0.00001953    0.00001962
     atom   67 type  1   force =     0.00000001   -0.00000001   -0.00000208
     atom   68 type  1   force =     0.00001956   -0.00001968    0.00001962
     atom   69 type  1   force =    -0.00000006    0.00000003    0.00000000
     atom   70 type  1   force =    -0.00001954    0.00001956    0.00001954
     atom   71 type  1   force =     0.00000000   -0.00000000   -0.00000206
     atom   72 type  1   force =     0.00001956   -0.00001961    0.00001960
     atom   73 type  1   force =     0.00000208   -0.00000004    0.00000002
     atom   74 type  1   force =    -0.00001957   -0.00001960   -0.00001960
     atom   75 type  1   force =    -0.00000006    0.00000208    0.00000006
     atom   76 type  1   force =     0.00001714    0.00001705   -0.00001716
     atom   77 type  1   force =     0.00000205    0.00000005   -0.00000001
     atom   78 type  1   force =    -0.00001960   -0.00001958   -0.00001959
     atom   79 type  1   force =     0.00000003    0.00000205   -0.00000000
     atom   80 type  1   force =     0.00001709    0.00001711   -0.00001706
     atom   81 type  1   force =    -0.00000003    0.00000001    0.00000004
     atom   82 type  1   force =    -0.00001965    0.00001949    0.00001941
     atom   83 type  1   force =    -0.00000001   -0.00000000   -0.00000207
     atom   84 type  1   force =     0.00001957   -0.00001954    0.00001963
     atom   85 type  1   force =     0.00000001    0.00000005   -0.00000006
     atom   86 type  1   force =    -0.00001956    0.00001959    0.00001956
     atom   87 type  1   force =     0.00000005   -0.00000002   -0.00000208
     atom   88 type  1   force =     0.00001956   -0.00001969    0.00001964
     atom   89 type  1   force =     0.00000211   -0.00000001    0.00000001
     atom   90 type  1   force =    -0.00001961   -0.00001949   -0.00001951
     atom   91 type  1   force =    -0.00000002    0.00000213   -0.00000002
     atom   92 type  1   force =     0.00001711    0.00001709   -0.00001710
     atom   93 type  1   force =     0.00000207    0.00000000   -0.00000005
     atom   94 type  1   force =    -0.00001955   -0.00001951   -0.00001953
     atom   95 type  1   force =    -0.00000001    0.00000212    0.00000003
     atom   96 type  1   force =     0.00001718    0.00001704   -0.00001708
     atom   97 type  1   force =     0.00000001   -0.00000201   -0.00000002
     atom   98 type  1   force =     0.00001954    0.00001958   -0.00001971
     atom   99 type  1   force =    -0.00000206   -0.00000001    0.00000004
     atom  100 type  1   force =    -0.00001708   -0.00001714   -0.00001718
     atom  101 type  1   force =     0.00000001   -0.00000206   -0.00000000
     atom  102 type  1   force =     0.00001957    0.00001957   -0.00001968
     atom  103 type  1   force =    -0.00000202    0.00000000   -0.00000004
     atom  104 type  1   force =    -0.00001710   -0.00001708   -0.00001713
     atom  105 type  1   force =    -0.00000004    0.00000003    0.00000207
     atom  106 type  1   force =     0.00001711   -0.00001712    0.00001709
     atom  107 type  1   force =    -0.00000001    0.00000003    0.00000004
     atom  108 type  1   force =    -0.00001711    0.00001713    0.00001714
     atom  109 type  1   force =     0.00000004   -0.00000003    0.00000206
     atom  110 type  1   force =     0.00001715   -0.00001714    0.00001715
     atom  111 type  1   force =     0.00000004    0.00000004   -0.00000003
     atom  112 type  1   force =    -0.00001706    0.00001714    0.00001705
[...]
     ethr =  3.49E-04,  avg # of iterations =  3.5

     total cpu time spent up to now is      953.1 secs

     total energy              =   -1456.69003570 Ry
     Harris-Foulkes estimate   =   -1456.67947027 Ry
     estimated scf accuracy    <       0.01027041 Ry

     iteration #  4     ecut=    50.00 Ry     beta=0.70
     CG style diagonalization
     ethr =  2.01E-06,  avg # of iterations =  4.7

     total cpu time spent up to now is      970.9 secs

     total energy              =   -1456.69985222 Ry
     Harris-Foulkes estimate   =   -1456.69996737 Ry
     estimated scf accuracy    <       0.00143920 Ry

     iteration #  5     ecut=    50.00 Ry     beta=0.70
     CG style diagonalization
     ethr =  2.81E-07,  avg # of iterations =  3.6

     total cpu time spent up to now is      983.6 secs

     total energy              =   -1456.70003667 Ry
     Harris-Foulkes estimate   =   -1456.70004617 Ry
     estimated scf accuracy    <       0.00003360 Ry

     iteration #  6     ecut=    50.00 Ry     beta=0.70
     CG style diagonalization
     ethr =  6.56E-09,  avg # of iterations =  5.1

     total cpu time spent up to now is     1004.4 secs

     total energy              =   -1456.70005671 Ry
     Harris-Foulkes estimate   =   -1456.70005664 Ry
     estimated scf accuracy    <       0.00000021 Ry

     iteration #  7     ecut=    50.00 Ry     beta=0.70
     CG style diagonalization
     c_bands:  5 eigenvalues not converged
     ethr =  4.17E-11,  avg # of iterations =  5.6

     total cpu time spent up to now is     1027.4 secs

     total energy              =   -1456.70005699 Ry
     Harris-Foulkes estimate   =   -1456.70005699 Ry
     estimated scf accuracy    <       0.00000002 Ry

     iteration #  8     ecut=    50.00 Ry     beta=0.70
     CG style diagonalization
     c_bands:  5 eigenvalues not converged
     ethr =  4.40E-12,  avg # of iterations =  4.3

     total cpu time spent up to now is     1043.7 secs

     total energy              = -1456.700056989743416 Ry
     Harris-Foulkes estimate   =   -1456.70005699 Ry
     estimated scf accuracy    <          4.9E-09 Ry

     iteration #  9     ecut=    50.00 Ry     beta=0.70
     CG style diagonalization
     c_bands:  5 eigenvalues not converged
     ethr =  9.53E-13,  avg # of iterations =  4.2

     total cpu time spent up to now is     1060.2 secs

     total energy              = -1456.700056989804580 Ry
     Harris-Foulkes estimate   =   -1456.70005699 Ry
     estimated scf accuracy    <          1.5E-09 Ry

     iteration # 10     ecut=    50.00 Ry     beta=0.70
     CG style diagonalization
     c_bands:  5 eigenvalues not converged
     ethr =  2.98E-13,  avg # of iterations =  4.6

     total cpu time spent up to now is     1078.5 secs

     total energy              = -1456.700056990157691 Ry
     Harris-Foulkes estimate   =   -1456.70005699 Ry
     estimated scf accuracy    <          8.7E-11 Ry

     iteration # 11     ecut=    50.00 Ry     beta=0.70
     CG style diagonalization
     c_bands:  5 eigenvalues not converged
     ethr =  1.00E-13,  avg # of iterations =  3.6

     total cpu time spent up to now is     1092.2 secs

     total energy              = -1456.700056990186567 Ry
     Harris-Foulkes estimate   =   -1456.70005699 Ry
     estimated scf accuracy    <          1.3E-11 Ry

     iteration # 12     ecut=    50.00 Ry     beta=0.70
     CG style diagonalization
     c_bands:  5 eigenvalues not converged
     ethr =  1.00E-13,  avg # of iterations =  3.3

     total cpu time spent up to now is     1104.6 secs

     total energy              = -1456.700056990189751 Ry
     Harris-Foulkes estimate   =   -1456.70005699 Ry
     estimated scf accuracy    <          3.5E-12 Ry

     iteration # 13     ecut=    50.00 Ry     beta=0.70
     CG style diagonalization
     c_bands:  5 eigenvalues not converged
     ethr =  1.00E-13,  avg # of iterations =  3.3

     total cpu time spent up to now is     1116.5 secs

     End of self-consistent calculation

          k = 0.0000 0.0000 0.0000 ( 28571 PWs)   bands (ev):

    -7.9811  -6.2344  -6.2344  -6.2344  -6.2344  -6.2343  -6.2343  -6.2343
    -6.2343  -5.6555  -5.6555  -5.6555  -5.6553  -5.6553  -5.6553  -3.4254
    -3.4254  -3.4254  -3.4252  -3.4252  -3.4252  -3.4252  -3.4252  -3.4252
    -3.4249  -3.4249  -3.4249  -2.0489  -2.0489  -2.0489  -2.0485  -1.8333
    -1.8333  -1.8333  -1.8333  -1.8333  -1.8333  -1.8333  -1.8333  -1.8333
    -1.8333  -1.8333  -1.8333  -1.8333  -1.8333  -1.8333  -1.8333  -1.8332
    -1.8332  -1.8332  -1.8332  -1.8330  -1.8330  -1.8330  -1.8330   0.1842
     0.1845   0.1845   0.1845   0.9050   0.9050   0.9051   0.9051   0.9051
     0.9053   1.7400   1.7400   1.7400   1.7402   1.7402   1.7402   1.7402
     1.7402   1.7402   1.7403   1.7403   1.7403   2.8791   2.8791   2.8791
     2.8791   2.8792   2.8792   2.8792   2.8792   2.8792   2.8792   2.8792
     2.8792   2.8792   2.8792   2.8792   2.8792   2.8792   2.8792   2.8792
     2.8792   2.8792   2.8792   2.8792   2.8792   5.0278   5.0278   5.0278
     5.0278   5.0278   5.0278   5.0278   5.0278   5.0278   5.0279   5.0279
     5.0279   5.3038   5.3038   5.3038   5.3039   5.3039   5.3039   5.3039
     5.3039   5.3039   5.3039   5.3039   5.3039   6.0669   6.0669   6.0669
     6.0671   6.0671   6.0671   6.0672   6.0672   6.0672   6.0672   6.0672
     6.0672   6.9817   6.9817   6.9817   6.9817   6.9817   6.9817   6.9817
     6.9817   6.9818   6.9818   6.9818   6.9818   6.9818   6.9818   6.9818
     6.9818   6.9820   6.9820   6.9820   6.9820   6.9820   6.9820   6.9820
     6.9820   7.1445   7.1445   7.1445   7.1445   7.1446   7.1446   7.1446
     7.1446   7.4008   7.4008   7.4008   7.4010   7.4010   7.4010   8.8562
     8.8562   8.8562   8.8562   8.8563   8.8563   8.8563   8.8563   8.8564
     8.8564   8.8564   8.8564   8.8564   8.8564   8.8564   8.8564   8.8564
     8.8564   8.8564   8.8564   8.8564   8.8564   8.8564   8.8564   9.3231
     9.3231   9.3231   9.3232   9.3232   9.3232   9.6298   9.6298   9.6298
     9.6298   9.6298   9.6298   9.6303   9.6303   9.6303   9.6303   9.6303
     9.6303  10.7819  10.7819  10.7819  10.7823  10.7823  10.7823  10.7824
    10.7824  10.7824  10.7824  10.7824  10.7824  11.0010  11.0010  11.0013
    11.0013  11.0013  11.0016  11.0016  11.0016  12.0834  12.0834  12.0834
    12.0834  12.0834  12.0834  12.0834  12.0834  12.0834  12.0834  12.0834
    12.0834  12.0834  12.0834  12.0834  12.0834  13.8839  13.8839  13.8839
    18.3982  18.3982  18.3982  18.3983  18.3983  18.3983  18.7005  18.7010
    18.7010  18.7010  18.7013  18.7013  19.5507  19.5507  19.5507  20.0522
    20.0522  20.0522  20.0522  20.0523  20.0523  20.0523  20.0523  20.0526
    20.0526  20.0526  20.0526  20.0526  20.0526  20.0526  20.0526  20.0527
    20.0527  20.0527  20.0527  20.0527  20.0527  20.0527  20.0527  21.8194
    21.8194  21.8194  21.8194  21.8194

     highest occupied, lowest unoccupied level (ev):    13.8839   18.3982

!    total energy              = -1456.700056990191342 Ry
     Harris-Foulkes estimate   =   -1456.70005699 Ry
     estimated scf accuracy    <          3.6E-13 Ry

     The total energy is the sum of the following terms:

     one-electron contribution =     530.78594450 Ry
     hartree contribution      =     122.89023299 Ry
     xc contribution           =    -458.72017063 Ry
     ewald contribution        =   -1651.65606385 Ry

     convergence has been achieved in  13 iterations

     Forces acting on atoms (cartesian axes, Ry/au):

     atom    1 type  1   force =     0.00000004    0.00000001    0.00000003
     atom    2 type  1   force =     0.00000807   -0.00000795   -0.00000797
     atom    3 type  1   force =     0.00000004    0.00000003    0.00000099
     atom    4 type  1   force =    -0.00000793    0.00000812   -0.00000805
     atom    5 type  1   force =    -0.00000002   -0.00000006    0.00000002
     atom    6 type  1   force =     0.00000804   -0.00000802   -0.00000788
     atom    7 type  1   force =    -0.00000003   -0.00000006    0.00000096
     atom    8 type  1   force =    -0.00000804    0.00000805   -0.00000797
     atom    9 type  1   force =    -0.00000094   -0.00000001    0.00000002
     atom   10 type  1   force =     0.00000805    0.00000803    0.00000804
     atom   11 type  1   force =     0.00000001   -0.00000100    0.00000005
     atom   12 type  1   force =    -0.00000558   -0.00000567    0.00000563
     atom   13 type  1   force =    -0.00000099   -0.00000003    0.00000002
     atom   14 type  1   force =     0.00000797    0.00000800    0.00000798
     atom   15 type  1   force =    -0.00000002   -0.00000096    0.00000001
     atom   16 type  1   force =    -0.00000567   -0.00000563    0.00000566
     atom   17 type  1   force =     0.00000001   -0.00000006   -0.00000002
     atom   18 type  1   force =     0.00000806   -0.00000807   -0.00000806
     atom   19 type  1   force =     0.00000000   -0.00000002    0.00000092
     atom   20 type  1   force =    -0.00000796    0.00000804   -0.00000805
     atom   21 type  1   force =    -0.00000004    0.00000002    0.00000001
     atom   22 type  1   force =     0.00000799   -0.00000792   -0.00000810
     atom   23 type  1   force =    -0.00000004   -0.00000002    0.00000094
     atom   24 type  1   force =    -0.00000803    0.00000808   -0.00000809
     atom   25 type  1   force =    -0.00000097   -0.00000001   -0.00000002
     atom   26 type  1   force =     0.00000807    0.00000805    0.00000799
     atom   27 type  1   force =     0.00000004   -0.00000092   -0.00000002
     atom   28 type  1   force =    -0.00000559   -0.00000563    0.00000563
     atom   29 type  1   force =    -0.00000095    0.00000001   -0.00000004
     atom   30 type  1   force =     0.00000794    0.00000803    0.00000800
     atom   31 type  1   force =     0.00000000   -0.00000101   -0.00000005
     atom   32 type  1   force =    -0.00000569   -0.00000564    0.00000565
     atom   33 type  1   force =     0.00000006    0.00000098    0.00000003
     atom   34 type  1   force =    -0.00000795   -0.00000798    0.00000807
     atom   35 type  1   force =     0.00000095    0.00000002    0.00000001
     atom   36 type  1   force =     0.00000561    0.00000564    0.00000567
     atom   37 type  1   force =    -0.00000006    0.00000093    0.00000003
     atom   38 type  1   force =    -0.00000806   -0.00000804    0.00000804
     atom   39 type  1   force =     0.00000094   -0.00000001    0.00000002
     atom   40 type  1   force =     0.00000573    0.00000566    0.00000572
     atom   41 type  1   force =     0.00000007   -0.00000001   -0.00000103
     atom   42 type  1   force =    -0.00000564    0.00000565   -0.00000568
     atom   43 type  1   force =    -0.00000000   -0.00000001   -0.00000002
     atom   44 type  1   force =     0.00000559   -0.00000564   -0.00000567
     atom   45 type  1   force =    -0.00000003   -0.00000004   -0.00000103
     atom   46 type  1   force =    -0.00000573    0.00000566   -0.00000566
     atom   47 type  1   force =    -0.00000002    0.00000002   -0.00000006
     atom   48 type  1   force =     0.00000572   -0.00000564   -0.00000568
     atom   49 type  1   force =     0.00000006    0.00000095   -0.00000006
     atom   50 type  1   force =    -0.00000791   -0.00000804    0.00000810
     atom   51 type  1   force =     0.00000094   -0.00000004   -0.00000008
     atom   52 type  1   force =     0.00000561    0.00000569    0.00000568
     atom   53 type  1   force =    -0.00000004    0.00000096   -0.00000008
     atom   54 type  1   force =    -0.00000805   -0.00000797    0.00000806
     atom   55 type  1   force =     0.00000093    0.00000002   -0.00000008
     atom   56 type  1   force =     0.00000569    0.00000565    0.00000568
     atom   57 type  1   force =     0.00000006   -0.00000005   -0.00000095
     atom   58 type  1   force =    -0.00000562    0.00000567   -0.00000561
     atom   59 type  1   force =     0.00000001    0.00000004    0.00000000
     atom   60 type  1   force =     0.00000558   -0.00000562   -0.00000561
     atom   61 type  1   force =     0.00000001    0.00000002   -0.00000095
     atom   62 type  1   force =    -0.00000568    0.00000563   -0.00000563
     atom   63 type  1   force =    -0.00000002    0.00000000   -0.00000002
     atom   64 type  1   force =     0.00000565   -0.00000569   -0.00000562
     atom   65 type  1   force =    -0.00000001    0.00000001    0.00000004
     atom   66 type  1   force =     0.00000803   -0.00000794   -0.00000807
     atom   67 type  1   force =    -0.00000008   -0.00000000    0.00000095
     atom   68 type  1   force =    -0.00000803    0.00000810   -0.00000804
     atom   69 type  1   force =     0.00000001   -0.00000005   -0.00000001
     atom   70 type  1   force =     0.00000802   -0.00000804   -0.00000805
     atom   71 type  1   force =     0.00000003   -0.00000002    0.00000093
     atom   72 type  1   force =    -0.00000794    0.00000801   -0.00000804
     atom   73 type  1   force =    -0.00000096    0.00000000   -0.00000004
     atom   74 type  1   force =     0.00000792    0.00000805    0.00000802
     atom   75 type  1   force =    -0.00000000   -0.00000105   -0.00000006
     atom   76 type  1   force =    -0.00000571   -0.00000560    0.00000564
     atom   77 type  1   force =    -0.00000095   -0.00000004   -0.00000007
     atom   78 type  1   force =     0.00000806    0.00000806    0.00000797
     atom   79 type  1   force =    -0.00000000   -0.00000092   -0.00000003
     atom   80 type  1   force =    -0.00000556   -0.00000566    0.00000560
     atom   81 type  1   force =    -0.00000000   -0.00000014    0.00000000
     atom   82 type  1   force =     0.00000803   -0.00000801   -0.00000784
     atom   83 type  1   force =    -0.00000007   -0.00000006    0.00000096
     atom   84 type  1   force =    -0.00000803    0.00000802   -0.00000801
     atom   85 type  1   force =    -0.00000000   -0.00000002    0.00000003
     atom   86 type  1   force =     0.00000806   -0.00000798   -0.00000797
     atom   87 type  1   force =    -0.00000000    0.00000004    0.00000100
     atom   88 type  1   force =    -0.00000798    0.00000813   -0.00000800
     atom   89 type  1   force =    -0.00000096   -0.00000004    0.00000003
     atom   90 type  1   force =     0.00000798    0.00000795    0.00000798
     atom   91 type  1   force =    -0.00000003   -0.00000095    0.00000003
     atom   92 type  1   force =    -0.00000565   -0.00000563    0.00000564
     atom   93 type  1   force =    -0.00000096    0.00000002    0.00000003
     atom   94 type  1   force =     0.00000801    0.00000805    0.00000803
     atom   95 type  1   force =     0.00000006   -0.00000100    0.00000006
     atom   96 type  1   force =    -0.00000562   -0.00000562    0.00000568
     atom   97 type  1   force =    -0.00000006    0.00000095   -0.00000006
     atom   98 type  1   force =    -0.00000805   -0.00000798    0.00000813
     atom   99 type  1   force =     0.00000092    0.00000001   -0.00000010
     atom  100 type  1   force =     0.00000568    0.00000567    0.00000570
     atom  101 type  1   force =     0.00000006    0.00000095   -0.00000008
     atom  102 type  1   force =    -0.00000793   -0.00000804    0.00000808
     atom  103 type  1   force =     0.00000095   -0.00000004   -0.00000006
     atom  104 type  1   force =     0.00000560    0.00000565    0.00000565
     atom  105 type  1   force =    -0.00000002   -0.00000002   -0.00000098
     atom  106 type  1   force =    -0.00000571    0.00000561   -0.00000559
     atom  107 type  1   force =    -0.00000002    0.00000000   -0.00000002
     atom  108 type  1   force =     0.00000567   -0.00000570   -0.00000563
     atom  109 type  1   force =     0.00000001   -0.00000003   -0.00000094
     atom  110 type  1   force =    -0.00000565    0.00000567   -0.00000564
     atom  111 type  1   force =     0.00000002    0.00000000    0.00000003
     atom  112 type  1   force =     0.00000557   -0.00000562   -0.00000558
     atom  113 type  1   force =    -0.00000005    0.00000090    0.00000004
     atom  114 type  1   force =    -0.00000803   -0.00000809    0.00000805
     atom  115 type  1   force =     0.00000091   -0.00000001    0.00000004
     atom  116 type  1   force =     0.00000575    0.00000566    0.00000570
     atom  117 type  1   force =    -0.00000000    0.00000098    0.00000002
     atom  118 type  1   force =    -0.00000798   -0.00000796    0.00000807
     atom  119 type  1   force =     0.00000095   -0.00000003    0.00000001
     atom  120 type  1   force =     0.00000558    0.00000566    0.00000570
     atom  121 type  1   force =    -0.00000000   -0.00000001   -0.00000099
     atom  122 type  1   force =    -0.00000570    0.00000562   -0.00000565
     atom  123 type  1   force =    -0.00000003   -0.00000001   -0.00000003
     atom  124 type  1   force =     0.00000568   -0.00000563   -0.00000566
     atom  125 type  1   force =     0.00000005    0.00000001   -0.00000102
     atom  126 type  1   force =    -0.00000567    0.00000567   -0.00000567
     atom  127 type  1   force =     0.00000003   -0.00000003   -0.00000004
     atom  128 type  1   force =     0.00000556   -0.00000567   -0.00000567

     Total force =     0.000096     Total SCF correction =     0.000002


     Computing stress (Cartesian axis) and pressure

          total   stress  (Ry/bohr**3)                   (kbar)     P=   -3.03
  -0.00002057  -0.00000000  -0.00000000         -3.03     -0.00     -0.00
  -0.00000000  -0.00002057  -0.00000000         -0.00     -3.03     -0.00
  -0.00000000  -0.00000000  -0.00002057         -0.00     -0.00     -3.03


     Writing output data file c.save
 
     init_run     :      2.92s CPU      3.70s WALL (       2 calls)
     electrons    :   1078.67s CPU   1093.22s WALL (       5 calls)
     update_pot   :      0.67s CPU      0.89s WALL (       3 calls)
     forces       :      3.64s CPU      3.91s WALL (       5 calls)
     stress       :     16.07s CPU     16.81s WALL (       5 calls)

     Called by init_run:
     wfcinit      :      1.99s CPU      2.27s WALL (       2 calls)
     potinit      :      0.22s CPU      0.26s WALL (       2 calls)

     Called by electrons:
     c_bands      :   1057.10s CPU   1071.08s WALL (      62 calls)
     sum_band     :     18.12s CPU     18.34s WALL (      62 calls)
     v_of_rho     :      1.34s CPU      1.39s WALL (      66 calls)
     mix_rho      :      1.74s CPU      1.80s WALL (      62 calls)

     Called by c_bands:
     init_us_2    :      0.29s CPU      0.30s WALL (     126 calls)
     ccgdiagg     :   1002.77s CPU   1015.48s WALL (      64 calls)
     wfcrot       :     55.43s CPU     56.59s WALL (      60 calls)

     Called by sum_band:

     Called by *cgdiagg:
     h_psi        :    549.22s CPU    556.78s WALL (   67707 calls)
     cdiaghg      :      3.79s CPU      4.09s WALL (      60 calls)

     Called by h_psi:
     h_psi:pot    :    548.81s CPU    556.37s WALL (   67707 calls)
     h_psi:calbec :    265.20s CPU    268.53s WALL (   67707 calls)
     vloc_psi     :    203.16s CPU    206.40s WALL (   67707 calls)
     add_vuspsi   :     79.91s CPU     81.00s WALL (   67707 calls)
     h_1psi       :    507.91s CPU    514.70s WALL (   67647 calls)

     General routines
     calbec       :    498.78s CPU    504.93s WALL (  135379 calls)
     fft          :     11.10s CPU     11.94s WALL (     766 calls)
     ffts         :      1.00s CPU      1.02s WALL (     802 calls)
     fftw         :    214.03s CPU    217.40s WALL (  189894 calls)
 
     Parallel routines
     fft_scatter  :    197.90s CPU    201.61s WALL (  191462 calls)
 
     PWSCF        : 18m24.74s CPU    18m43.29s WALL

 
   This run was terminated on:   9:34:32  24May2021            

=------------------------------------------------------------------------------=
   JOB DONE.
=------------------------------------------------------------------------------=
