
     Program PWSCF v.6.1 (svn rev. 13369) starts on  8Dec2020 at  8:37: 6 

     This program is part of the open-source Quantum ESPRESSO suite
     for quantum simulation of materials; please cite
         "P. Giannozzi et al., J. Phys.:Condens. Matter 21 395502 (2009);
          URL http://www.quantum-espresso.org", 
     in publications or presentations arising from this work. More details at
     http://www.quantum-espresso.org/quote

     Parallel version (MPI & OpenMP), running on      40 processor cores
     Number of MPI processes:                40
     Threads/MPI process:                     1
     R & G space division:  proc/nbgrp/npool/nimage =      40
     Waiting for input...
     Reading input from standard input

     Current dimensions of program PWSCF are:
     Max number of different atomic species (ntypx) = 10
     Max number of k-points (npk) =  40000
     Max angular momentum in pseudopotentials (lmaxx) =  3

     IMPORTANT: XC functional enforced from input :
     Exchange-correlation      = PZ ( 1  1  0  0 0 0)
     Any further DFT definition will be discarded
     Please, verify this is what you really want

               file C.pz-mt.fhi.UPF: wavefunction(s)  3d renormalized

     Subspace diagonalization in iterative solution of the eigenvalue problem:
     one sub-group per band group will be used
     scalapack distributed-memory algorithm (size of sub-group:  4*  4 procs)

 
     Parallelization info
     --------------------
     sticks:   dense  smooth     PW     G-vecs:    dense   smooth      PW
     Min           9       9      3                  115      115      20
     Max          10      10      4                  119      119      24
     Sum         367     367    121                 4645     4645     869
 


     bravais-lattice index     =            2
     lattice parameter (alat)  =       6.6493  a.u.
     unit-cell volume          =      73.4959 (a.u.)^3
     number of atoms/cell      =            2
     number of atomic types    =            1
     number of electrons       =         8.00
     number of Kohn-Sham states=            8
     kinetic-energy cutoff     =      60.0000  Ry
     charge density cutoff     =     240.0000  Ry
     convergence threshold     =      1.0E-10
     mixing beta               =       0.7000
     number of iterations used =            8  plain     mixing
     Exchange-correlation      = PZ ( 1  1  0  0 0 0)

     celldm(1)=   6.649277  celldm(2)=   0.000000  celldm(3)=   0.000000
     celldm(4)=   0.000000  celldm(5)=   0.000000  celldm(6)=   0.000000

     crystal axes: (cart. coord. in units of alat)
               a(1) = (  -0.500000   0.000000   0.500000 )  
               a(2) = (   0.000000   0.500000   0.500000 )  
               a(3) = (  -0.500000   0.500000   0.000000 )  

     reciprocal axes: (cart. coord. in units 2 pi/alat)
               b(1) = ( -1.000000 -1.000000  1.000000 )  
               b(2) = (  1.000000  1.000000  1.000000 )  
               b(3) = ( -1.000000  1.000000 -1.000000 )  


     PseudoPot. # 1 for  C read from file:
     ../C.pz-mt.fhi.UPF
     MD5 check sum: b7c38bc33a0cf75f44be89b84470f298
     Pseudo is Norm-conserving, Zval =  4.0
     Generated using FHI98PP, converted with fhi2upf.x v.5.0.2
     Using radial grid of  461 points,  2 beta functions with: 
                l(1) =   0
                l(2) =   1

     atomic species   valence    mass     pseudopotential
        C              4.00    12.01100      C( 1.00)

     No symmetry found



   Cartesian axes

     site n.     atom                  positions (alat units)
         1           C   tau(   1) = (   0.0000000   0.0000000   0.0000000  )
         2           C   tau(   2) = (  -0.2500000   0.2500000   0.2500000  )

     number of k points=     8
                       cart. coord. in units 2pi/alat
        k(    1) = (   0.0000000   0.0000000   0.0000000), wk =   0.2500000
        k(    2) = (   0.5000000  -0.5000000   0.5000000), wk =   0.2500000
        k(    3) = (  -0.5000000  -0.5000000  -0.5000000), wk =   0.2500000
        k(    4) = (   0.0000000  -1.0000000   0.0000000), wk =   0.2500000
        k(    5) = (   0.5000000   0.5000000  -0.5000000), wk =   0.2500000
        k(    6) = (   1.0000000   0.0000000   0.0000000), wk =   0.2500000
        k(    7) = (   0.0000000   0.0000000  -1.0000000), wk =   0.2500000
        k(    8) = (   0.5000000  -0.5000000  -0.5000000), wk =   0.2500000

     Dense  grid:     4645 G-vectors     FFT dimensions: (  24,  24,  24)

     Estimated max dynamical RAM per process >       0.16MB

     Estimated total allocated dynamical RAM >       6.38MB

     Initial potential from superposition of free atoms

     starting charge    7.99993, renormalised to    8.00000
     Starting wfc are   18 randomized atomic wfcs

     total cpu time spent up to now is        0.2 secs

     per-process dynamical memory:    17.6 Mb

     Self-consistent Calculation

     iteration #  1     ecut=    60.00 Ry     beta=0.70
     Davidson diagonalization with overlap
     ethr =  1.00E-02,  avg # of iterations =  2.9

     total cpu time spent up to now is        0.3 secs

     total energy              =     -22.63857027 Ry
     Harris-Foulkes estimate   =     -22.74348228 Ry
     estimated scf accuracy    <       0.19587308 Ry

     iteration #  2     ecut=    60.00 Ry     beta=0.70
     Davidson diagonalization with overlap
     ethr =  2.45E-03,  avg # of iterations =  2.0

     total cpu time spent up to now is        0.4 secs

     total energy              =     -22.65294284 Ry
     Harris-Foulkes estimate   =     -22.65420434 Ry
     estimated scf accuracy    <       0.00355029 Ry

     iteration #  3     ecut=    60.00 Ry     beta=0.70
     Davidson diagonalization with overlap
     ethr =  4.44E-05,  avg # of iterations =  2.0

     total cpu time spent up to now is        0.5 secs

     total energy              =     -22.65340438 Ry
     Harris-Foulkes estimate   =     -22.65342597 Ry
     estimated scf accuracy    <       0.00010893 Ry

     iteration #  4     ecut=    60.00 Ry     beta=0.70
     Davidson diagonalization with overlap
     ethr =  1.36E-06,  avg # of iterations =  1.6

     total cpu time spent up to now is        0.6 secs

     total energy              =     -22.65340760 Ry
     Harris-Foulkes estimate   =     -22.65340940 Ry
     estimated scf accuracy    <       0.00000402 Ry

     iteration #  5     ecut=    60.00 Ry     beta=0.70
     Davidson diagonalization with overlap
     ethr =  5.03E-08,  avg # of iterations =  2.0

     total cpu time spent up to now is        0.7 secs

     total energy              =     -22.65340790 Ry
     Harris-Foulkes estimate   =     -22.65340790 Ry
     estimated scf accuracy    <          5.1E-09 Ry

     iteration #  6     ecut=    60.00 Ry     beta=0.70
     Davidson diagonalization with overlap
     ethr =  6.38E-11,  avg # of iterations =  3.0

     total cpu time spent up to now is        0.8 secs

     total energy              =     -22.65340791 Ry
     Harris-Foulkes estimate   =     -22.65340791 Ry
     estimated scf accuracy    <          1.6E-09 Ry

     iteration #  7     ecut=    60.00 Ry     beta=0.70
     Davidson diagonalization with overlap
     ethr =  1.97E-11,  avg # of iterations =  1.6

     total cpu time spent up to now is        0.9 secs

     total energy              =     -22.65340791 Ry
     Harris-Foulkes estimate   =     -22.65340791 Ry
     estimated scf accuracy    <          3.1E-10 Ry

     iteration #  8     ecut=    60.00 Ry     beta=0.70
     Davidson diagonalization with overlap
     ethr =  3.90E-12,  avg # of iterations =  2.5

     total cpu time spent up to now is        1.0 secs

     End of self-consistent calculation

          k = 0.0000 0.0000 0.0000 (   561 PWs)   bands (ev):

    -7.8844  14.1097  14.1097  14.1097  19.6740  19.6740  19.6740  28.4211

          k = 0.5000-0.5000 0.5000 (   580 PWs)   bands (ev):

    -1.7229   0.1780  11.1930  11.1930  22.5529  22.5529  23.5829  29.7032

          k =-0.5000-0.5000-0.5000 (   580 PWs)   bands (ev):

    -1.7229   0.1780  11.1930  11.1930  22.5529  22.5529  23.5829  29.7032

          k = 0.0000-1.0000 0.0000 (   588 PWs)   bands (ev):

     1.1616   1.1616   7.5132   7.5132  18.7227  18.7227  31.3695  31.3695

          k = 0.5000 0.5000-0.5000 (   580 PWs)   bands (ev):

    -1.7229   0.1780  11.1930  11.1930  22.5529  22.5529  23.5829  29.7032

          k = 1.0000 0.0000 0.0000 (   588 PWs)   bands (ev):

     1.1616   1.1616   7.5132   7.5132  18.7227  18.7227  31.3695  31.3695

          k = 0.0000 0.0000-1.0000 (   588 PWs)   bands (ev):

     1.1616   1.1616   7.5132   7.5132  18.7227  18.7227  31.3695  31.3695

          k = 0.5000-0.5000-0.5000 (   580 PWs)   bands (ev):

    -1.7229   0.1780  11.1930  11.1930  22.5529  22.5529  23.5829  29.7032

     highest occupied, lowest unoccupied level (ev):    14.1097   18.7227

!    total energy              =     -22.65340791 Ry
     Harris-Foulkes estimate   =     -22.65340791 Ry
     estimated scf accuracy    <          1.7E-12 Ry

     The total energy is the sum of the following terms:

     one-electron contribution =       8.40529879 Ry
     hartree contribution      =       2.06539499 Ry
     xc contribution           =      -7.19985034 Ry
     ewald contribution        =     -25.92425134 Ry

     convergence has been achieved in   8 iterations

     Writing output data file c.save
 
     init_run     :      0.06s CPU      0.06s WALL (       1 calls)
     electrons    :      0.76s CPU      0.84s WALL (       1 calls)

     Called by init_run:
     wfcinit      :      0.05s CPU      0.05s WALL (       1 calls)
     potinit      :      0.00s CPU      0.00s WALL (       1 calls)

     Called by electrons:
     c_bands      :      0.71s CPU      0.74s WALL (       8 calls)
     sum_band     :      0.02s CPU      0.02s WALL (       8 calls)
     v_of_rho     :      0.00s CPU      0.00s WALL (       9 calls)
     mix_rho      :      0.00s CPU      0.04s WALL (       8 calls)

     Called by c_bands:
     init_us_2    :      0.00s CPU      0.00s WALL (     136 calls)
     cegterg      :      0.70s CPU      0.73s WALL (      64 calls)

     Called by sum_band:

     Called by *egterg:
     h_psi        :      0.13s CPU      0.13s WALL (     213 calls)
     g_psi        :      0.00s CPU      0.00s WALL (     141 calls)
     cdiaghg      :      0.42s CPU      0.42s WALL (     205 calls)

     Called by h_psi:
     h_psi:pot    :      0.13s CPU      0.13s WALL (     213 calls)
     h_psi:calbec :      0.01s CPU      0.01s WALL (     213 calls)
     vloc_psi     :      0.11s CPU      0.12s WALL (     213 calls)
     add_vuspsi   :      0.00s CPU      0.00s WALL (     213 calls)

     General routines
     calbec       :      0.01s CPU      0.01s WALL (     213 calls)
     fft          :      0.00s CPU      0.01s WALL (      35 calls)
     fftw         :      0.12s CPU      0.13s WALL (    3462 calls)
 
     Parallel routines
     fft_scatter  :      0.10s CPU      0.11s WALL (    3497 calls)
 
     PWSCF        :     0.92s CPU         1.42s WALL

 
   This run was terminated on:   8:37: 7   8Dec2020            

=------------------------------------------------------------------------------=
   JOB DONE.
=------------------------------------------------------------------------------=
