
     Program PWSCF v.6.1 (svn rev. 13369) starts on 21Jan2021 at  6:48:36 

     This program is part of the open-source Quantum ESPRESSO suite
     for quantum simulation of materials; please cite
         "P. Giannozzi et al., J. Phys.:Condens. Matter 21 395502 (2009);
          URL http://www.quantum-espresso.org", 
     in publications or presentations arising from this work. More details at
     http://www.quantum-espresso.org/quote

     Parallel version (MPI & OpenMP), running on      80 processor cores
     Number of MPI processes:                80
     Threads/MPI process:                     1
     R & G space division:  proc/nbgrp/npool/nimage =      80
     Waiting for input...
     Reading input from standard input

     Current dimensions of program PWSCF are:
     Max number of different atomic species (ntypx) = 10
     Max number of k-points (npk) =  40000
     Max angular momentum in pseudopotentials (lmaxx) =  3

     IMPORTANT: XC functional enforced from input :
     Exchange-correlation      = PBE ( 1  4  3  4 0 0)
     Any further DFT definition will be discarded
     Please, verify this is what you really want


     Subspace diagonalization in iterative solution of the eigenvalue problem:
     one sub-group per band group will be used
     scalapack distributed-memory algorithm (size of sub-group:  6*  6 procs)

 
     Parallelization info
     --------------------
     sticks:   dense  smooth     PW     G-vecs:    dense   smooth      PW
     Min          61      61     15                 2872     2872     357
     Max          62      62     16                 2881     2881     361
     Sum        4939    4939   1237               230193   230193   28763
 


     bravais-lattice index     =            2
     lattice parameter (alat)  =      26.8137  a.u.
     unit-cell volume          =    4819.5928 (a.u.)^3
     number of atoms/cell      =          128
     number of atomic types    =            2
     number of electrons       =       514.00
     number of Kohn-Sham states=          300
     kinetic-energy cutoff     =      50.0000  Ry
     charge density cutoff     =     200.0000  Ry
     convergence threshold     =      1.0E-10
     mixing beta               =       0.7000
     number of iterations used =            8  local-TF  mixing
     Exchange-correlation      = PBE ( 1  4  3  4 0 0)
     nstep                     =           50


     celldm(1)=  26.813702  celldm(2)=   0.000000  celldm(3)=   0.000000
     celldm(4)=   0.000000  celldm(5)=   0.000000  celldm(6)=   0.000000

     crystal axes: (cart. coord. in units of alat)
               a(1) = (  -0.500000   0.000000   0.500000 )  
               a(2) = (   0.000000   0.500000   0.500000 )  
               a(3) = (  -0.500000   0.500000   0.000000 )  

     reciprocal axes: (cart. coord. in units 2 pi/alat)
               b(1) = ( -1.000000 -1.000000  1.000000 )  
               b(2) = (  1.000000  1.000000  1.000000 )  
               b(3) = ( -1.000000  1.000000 -1.000000 )  


     PseudoPot. # 1 for C  read from file:
     ~/PseudoPotential/upf/C_ONCV_PBE-1.0.upf
     MD5 check sum: Not computed, couldn't open file
     Pseudo is Norm-conserving, Zval =  4.0
     Generated using ONCVPSP code by D. R. Hamann
     Using radial grid of  602 points,  4 beta functions with: 
                l(1) =   0
                l(2) =   0
                l(3) =   1
                l(4) =   1

     PseudoPot. # 2 for N  read from file:
     ~/PseudoPotential/upf/N_ONCV_PBE-1.0.upf
     MD5 check sum: Not computed, couldn't open file
     Pseudo is Norm-conserving, Zval =  5.0
     Generated using ONCVPSP code by D. R. Hamann
     Using radial grid of  602 points,  4 beta functions with: 
                l(1) =   0
                l(2) =   0
                l(3) =   1
                l(4) =   1

     atomic species   valence    mass     pseudopotential
        C              4.00    12.01100     C ( 1.00)
        N              5.00    14.00670     N ( 1.00)

     No symmetry found



   Cartesian axes

     site n.     atom                  positions (alat units)
         1           N   tau(   1) = (   0.0000000   0.0000000   0.0000000  )
         2           N   tau(   2) = (  -0.0625000   0.0625000   0.0625000  )
         3           C   tau(   3) = (  -0.1250000   0.1250000   0.0000000  )
         4           C   tau(   4) = (  -0.1875000   0.1875000   0.0625000  )
         5           C   tau(   5) = (  -0.2500000   0.2500000   0.0000000  )
         6           C   tau(   6) = (  -0.3125000   0.3125000   0.0625000  )
         7           C   tau(   7) = (  -0.3750000   0.3750000   0.0000000  )
         8           C   tau(   8) = (  -0.4375000   0.4375000   0.0625000  )
         9           C   tau(   9) = (   0.0000000   0.1250000   0.1250000  )
        10           C   tau(  10) = (  -0.0625000   0.1875000   0.1875000  )
        11           C   tau(  11) = (  -0.1250000   0.2500000   0.1250000  )
        12           C   tau(  12) = (  -0.1875000   0.3125000   0.1875000  )
        13           C   tau(  13) = (  -0.2500000   0.3750000   0.1250000  )
        14           C   tau(  14) = (  -0.3125000   0.4375000   0.1875000  )
        15           C   tau(  15) = (  -0.3750000   0.5000000   0.1250000  )
        16           C   tau(  16) = (  -0.4375000   0.5625000   0.1875000  )
        17           C   tau(  17) = (   0.0000000   0.2500000   0.2500000  )
        18           C   tau(  18) = (  -0.0625000   0.3125000   0.3125000  )
        19           C   tau(  19) = (  -0.1250000   0.3750000   0.2500000  )
        20           C   tau(  20) = (  -0.1875000   0.4375000   0.3125000  )
        21           C   tau(  21) = (  -0.2500000   0.5000000   0.2500000  )
        22           C   tau(  22) = (  -0.3125000   0.5625000   0.3125000  )
        23           C   tau(  23) = (  -0.3750000   0.6250000   0.2500000  )
        24           C   tau(  24) = (  -0.4375000   0.6875000   0.3125000  )
        25           C   tau(  25) = (   0.0000000   0.3750000   0.3750000  )
        26           C   tau(  26) = (  -0.0625000   0.4375000   0.4375000  )
        27           C   tau(  27) = (  -0.1250000   0.5000000   0.3750000  )
        28           C   tau(  28) = (  -0.1875000   0.5625000   0.4375000  )
        29           C   tau(  29) = (  -0.2500000   0.6250000   0.3750000  )
        30           C   tau(  30) = (  -0.3125000   0.6875000   0.4375000  )
        31           C   tau(  31) = (  -0.3750000   0.7500000   0.3750000  )
        32           C   tau(  32) = (  -0.4375000   0.8125000   0.4375000  )
        33           C   tau(  33) = (  -0.1250000   0.0000000   0.1250000  )
        34           C   tau(  34) = (  -0.1875000   0.0625000   0.1875000  )
        35           C   tau(  35) = (  -0.2500000   0.1250000   0.1250000  )
        36           C   tau(  36) = (  -0.3125000   0.1875000   0.1875000  )
        37           C   tau(  37) = (  -0.3750000   0.2500000   0.1250000  )
        38           C   tau(  38) = (  -0.4375000   0.3125000   0.1875000  )
        39           C   tau(  39) = (  -0.5000000   0.3750000   0.1250000  )
        40           C   tau(  40) = (  -0.5625000   0.4375000   0.1875000  )
        41           C   tau(  41) = (  -0.1250000   0.1250000   0.2500000  )
        42           C   tau(  42) = (  -0.1875000   0.1875000   0.3125000  )
        43           C   tau(  43) = (  -0.2500000   0.2500000   0.2500000  )
        44           C   tau(  44) = (  -0.3125000   0.3125000   0.3125000  )
        45           C   tau(  45) = (  -0.3750000   0.3750000   0.2500000  )
        46           C   tau(  46) = (  -0.4375000   0.4375000   0.3125000  )
        47           C   tau(  47) = (  -0.5000000   0.5000000   0.2500000  )
        48           C   tau(  48) = (  -0.5625000   0.5625000   0.3125000  )
        49           C   tau(  49) = (  -0.1250000   0.2500000   0.3750000  )
        50           C   tau(  50) = (  -0.1875000   0.3125000   0.4375000  )
        51           C   tau(  51) = (  -0.2500000   0.3750000   0.3750000  )
        52           C   tau(  52) = (  -0.3125000   0.4375000   0.4375000  )
        53           C   tau(  53) = (  -0.3750000   0.5000000   0.3750000  )
        54           C   tau(  54) = (  -0.4375000   0.5625000   0.4375000  )
        55           C   tau(  55) = (  -0.5000000   0.6250000   0.3750000  )
        56           C   tau(  56) = (  -0.5625000   0.6875000   0.4375000  )
        57           C   tau(  57) = (  -0.1250000   0.3750000   0.5000000  )
        58           C   tau(  58) = (  -0.1875000   0.4375000   0.5625000  )
        59           C   tau(  59) = (  -0.2500000   0.5000000   0.5000000  )
        60           C   tau(  60) = (  -0.3125000   0.5625000   0.5625000  )
        61           C   tau(  61) = (  -0.3750000   0.6250000   0.5000000  )
        62           C   tau(  62) = (  -0.4375000   0.6875000   0.5625000  )
        63           C   tau(  63) = (  -0.5000000   0.7500000   0.5000000  )
        64           C   tau(  64) = (  -0.5625000   0.8125000   0.5625000  )
        65           C   tau(  65) = (  -0.2500000   0.0000000   0.2500000  )
        66           C   tau(  66) = (  -0.3125000   0.0625000   0.3125000  )
        67           C   tau(  67) = (  -0.3750000   0.1250000   0.2500000  )
        68           C   tau(  68) = (  -0.4375000   0.1875000   0.3125000  )
        69           C   tau(  69) = (  -0.5000000   0.2500000   0.2500000  )
        70           C   tau(  70) = (  -0.5625000   0.3125000   0.3125000  )
        71           C   tau(  71) = (  -0.6250000   0.3750000   0.2500000  )
        72           C   tau(  72) = (  -0.6875000   0.4375000   0.3125000  )
        73           C   tau(  73) = (  -0.2500000   0.1250000   0.3750000  )
        74           C   tau(  74) = (  -0.3125000   0.1875000   0.4375000  )
        75           C   tau(  75) = (  -0.3750000   0.2500000   0.3750000  )
        76           C   tau(  76) = (  -0.4375000   0.3125000   0.4375000  )
        77           C   tau(  77) = (  -0.5000000   0.3750000   0.3750000  )
        78           C   tau(  78) = (  -0.5625000   0.4375000   0.4375000  )
        79           C   tau(  79) = (  -0.6250000   0.5000000   0.3750000  )
        80           C   tau(  80) = (  -0.6875000   0.5625000   0.4375000  )
        81           C   tau(  81) = (  -0.2500000   0.2500000   0.5000000  )
        82           C   tau(  82) = (  -0.3125000   0.3125000   0.5625000  )
        83           C   tau(  83) = (  -0.3750000   0.3750000   0.5000000  )
        84           C   tau(  84) = (  -0.4375000   0.4375000   0.5625000  )
        85           C   tau(  85) = (  -0.5000000   0.5000000   0.5000000  )
        86           C   tau(  86) = (  -0.5625000   0.5625000   0.5625000  )
        87           C   tau(  87) = (  -0.6250000   0.6250000   0.5000000  )
        88           C   tau(  88) = (  -0.6875000   0.6875000   0.5625000  )
        89           C   tau(  89) = (  -0.2500000   0.3750000   0.6250000  )
        90           C   tau(  90) = (  -0.3125000   0.4375000   0.6875000  )
        91           C   tau(  91) = (  -0.3750000   0.5000000   0.6250000  )
        92           C   tau(  92) = (  -0.4375000   0.5625000   0.6875000  )
        93           C   tau(  93) = (  -0.5000000   0.6250000   0.6250000  )
        94           C   tau(  94) = (  -0.5625000   0.6875000   0.6875000  )
        95           C   tau(  95) = (  -0.6250000   0.7500000   0.6250000  )
        96           C   tau(  96) = (  -0.6875000   0.8125000   0.6875000  )
        97           C   tau(  97) = (  -0.3750000   0.0000000   0.3750000  )
        98           C   tau(  98) = (  -0.4375000   0.0625000   0.4375000  )
        99           C   tau(  99) = (  -0.5000000   0.1250000   0.3750000  )
       100           C   tau( 100) = (  -0.5625000   0.1875000   0.4375000  )
       101           C   tau( 101) = (  -0.6250000   0.2500000   0.3750000  )
       102           C   tau( 102) = (  -0.6875000   0.3125000   0.4375000  )
       103           C   tau( 103) = (  -0.7500000   0.3750000   0.3750000  )
       104           C   tau( 104) = (  -0.8125000   0.4375000   0.4375000  )
       105           C   tau( 105) = (  -0.3750000   0.1250000   0.5000000  )
       106           C   tau( 106) = (  -0.4375000   0.1875000   0.5625000  )
       107           C   tau( 107) = (  -0.5000000   0.2500000   0.5000000  )
       108           C   tau( 108) = (  -0.5625000   0.3125000   0.5625000  )
       109           C   tau( 109) = (  -0.6250000   0.3750000   0.5000000  )
       110           C   tau( 110) = (  -0.6875000   0.4375000   0.5625000  )
       111           C   tau( 111) = (  -0.7500000   0.5000000   0.5000000  )
       112           C   tau( 112) = (  -0.8125000   0.5625000   0.5625000  )
       113           C   tau( 113) = (  -0.3750000   0.2500000   0.6250000  )
       114           C   tau( 114) = (  -0.4375000   0.3125000   0.6875000  )
       115           C   tau( 115) = (  -0.5000000   0.3750000   0.6250000  )
       116           C   tau( 116) = (  -0.5625000   0.4375000   0.6875000  )
       117           C   tau( 117) = (  -0.6250000   0.5000000   0.6250000  )
       118           C   tau( 118) = (  -0.6875000   0.5625000   0.6875000  )
       119           C   tau( 119) = (  -0.7500000   0.6250000   0.6250000  )
       120           C   tau( 120) = (  -0.8125000   0.6875000   0.6875000  )
       121           C   tau( 121) = (  -0.3750000   0.3750000   0.7500000  )
       122           C   tau( 122) = (  -0.4375000   0.4375000   0.8125000  )
       123           C   tau( 123) = (  -0.5000000   0.5000000   0.7500000  )
       124           C   tau( 124) = (  -0.5625000   0.5625000   0.8125000  )
       125           C   tau( 125) = (  -0.6250000   0.6250000   0.7500000  )
       126           C   tau( 126) = (  -0.6875000   0.6875000   0.8125000  )
       127           C   tau( 127) = (  -0.7500000   0.7500000   0.7500000  )
       128           C   tau( 128) = (  -0.8125000   0.8125000   0.8125000  )

     number of k points=     1
                       cart. coord. in units 2pi/alat
        k(    1) = (   0.0000000   0.0000000   0.0000000), wk =   2.0000000

     Dense  grid:   230193 G-vectors     FFT dimensions: (  90,  90,  90)

     Estimated max dynamical RAM per process >      22.04MB

     Estimated total allocated dynamical RAM >    1763.31MB

     Initial potential from superposition of free atoms

     starting charge  513.11704, renormalised to  514.00000
     Starting wfc are random

     total cpu time spent up to now is        2.6 secs

     per-process dynamical memory:    57.3 Mb

     Self-consistent Calculation

     iteration #  1     ecut=    50.00 Ry     beta=0.70
     Davidson diagonalization with overlap
     ethr =  1.00E-02,  avg # of iterations = 11.0

     total cpu time spent up to now is       10.0 secs

     total energy              =   -1473.21615888 Ry
     Harris-Foulkes estimate   =   -1475.73030682 Ry
     estimated scf accuracy    <       7.95613341 Ry

     iteration #  2     ecut=    50.00 Ry     beta=0.70
     Davidson diagonalization with overlap
     ethr =  1.55E-03,  avg # of iterations = 11.0

     total cpu time spent up to now is       13.4 secs

     total energy              =   -1472.84295169 Ry
     Harris-Foulkes estimate   =   -1473.57105339 Ry
     estimated scf accuracy    <       1.75885266 Ry

     iteration #  3     ecut=    50.00 Ry     beta=0.70
     Davidson diagonalization with overlap
     ethr =  3.42E-04,  avg # of iterations =  8.0

     total cpu time spent up to now is       16.9 secs

     total energy              =   -1473.05158392 Ry
     Harris-Foulkes estimate   =   -1473.04539192 Ry
     estimated scf accuracy    <       0.02499563 Ry

     iteration #  4     ecut=    50.00 Ry     beta=0.70
     Davidson diagonalization with overlap
     ethr =  4.86E-06,  avg # of iterations = 15.0

     total cpu time spent up to now is       27.1 secs

     total energy              =   -1473.06389285 Ry
     Harris-Foulkes estimate   =   -1473.06213883 Ry
     estimated scf accuracy    <       0.00707104 Ry

     iteration #  5     ecut=    50.00 Ry     beta=0.70
     Davidson diagonalization with overlap
     ethr =  1.38E-06,  avg # of iterations =  7.0

     total cpu time spent up to now is       30.4 secs

     total energy              =   -1473.06463628 Ry
     Harris-Foulkes estimate   =   -1473.06478571 Ry
     estimated scf accuracy    <       0.00133396 Ry

     iteration #  6     ecut=    50.00 Ry     beta=0.70
     Davidson diagonalization with overlap
     ethr =  2.60E-07,  avg # of iterations =  6.0

     total cpu time spent up to now is       32.7 secs

     total energy              =   -1473.06443355 Ry
     Harris-Foulkes estimate   =   -1473.06467789 Ry
     estimated scf accuracy    <       0.00077220 Ry

     iteration #  7     ecut=    50.00 Ry     beta=0.70
     Davidson diagonalization with overlap
     ethr =  1.50E-07,  avg # of iterations =  8.0

     total cpu time spent up to now is       36.5 secs

     total energy              =   -1473.06455593 Ry
     Harris-Foulkes estimate   =   -1473.06457458 Ry
     estimated scf accuracy    <       0.00006155 Ry

     iteration #  8     ecut=    50.00 Ry     beta=0.70
     Davidson diagonalization with overlap
     ethr =  1.20E-08,  avg # of iterations =  7.0

     total cpu time spent up to now is       40.1 secs

     total energy              =   -1473.06456583 Ry
     Harris-Foulkes estimate   =   -1473.06456627 Ry
     estimated scf accuracy    <       0.00000616 Ry

     iteration #  9     ecut=    50.00 Ry     beta=0.70
     Davidson diagonalization with overlap
     ethr =  1.20E-09,  avg # of iterations = 10.0

     total cpu time spent up to now is       44.5 secs

     total energy              =   -1473.06456631 Ry
     Harris-Foulkes estimate   =   -1473.06456671 Ry
     estimated scf accuracy    <       0.00000144 Ry

     iteration # 10     ecut=    50.00 Ry     beta=0.70
     Davidson diagonalization with overlap
     ethr =  2.80E-10,  avg # of iterations =  8.0

     total cpu time spent up to now is       48.0 secs

     total energy              =   -1473.06456642 Ry
     Harris-Foulkes estimate   =   -1473.06456648 Ry
     estimated scf accuracy    <       0.00000020 Ry

     iteration # 11     ecut=    50.00 Ry     beta=0.70
     Davidson diagonalization with overlap
     ethr =  3.85E-11,  avg # of iterations = 13.0

     total cpu time spent up to now is       54.0 secs

     total energy              =   -1473.06456645 Ry
     Harris-Foulkes estimate   =   -1473.06456645 Ry
     estimated scf accuracy    <       0.00000002 Ry

     iteration # 12     ecut=    50.00 Ry     beta=0.70
     Davidson diagonalization with overlap
     ethr =  3.85E-12,  avg # of iterations =  5.0

     total cpu time spent up to now is       56.4 secs

     total energy              =   -1473.06456645 Ry
     Harris-Foulkes estimate   =   -1473.06456646 Ry
     estimated scf accuracy    <          5.2E-09 Ry

     iteration # 13     ecut=    50.00 Ry     beta=0.70
     Davidson diagonalization with overlap
     ethr =  1.02E-12,  avg # of iterations =  8.0

     total cpu time spent up to now is       60.1 secs

     total energy              =   -1473.06456646 Ry
     Harris-Foulkes estimate   =   -1473.06456646 Ry
     estimated scf accuracy    <          1.0E-09 Ry

     iteration # 14     ecut=    50.00 Ry     beta=0.70
     Davidson diagonalization with overlap
     ethr =  2.03E-13,  avg # of iterations =  9.0

     total cpu time spent up to now is       63.8 secs

     total energy              =   -1473.06456646 Ry
     Harris-Foulkes estimate   =   -1473.06456646 Ry
     estimated scf accuracy    <          2.4E-10 Ry

     iteration # 15     ecut=    50.00 Ry     beta=0.70
     Davidson diagonalization with overlap
     ethr =  1.00E-13,  avg # of iterations = 16.0

     total cpu time spent up to now is       68.3 secs

     End of self-consistent calculation

          k = 0.0000 0.0000 0.0000 ( 28763 PWs)   bands (ev):

    -8.6882  -7.6012  -6.5982  -6.3283  -6.3283  -6.2838  -6.2838  -6.2701
    -6.2590  -5.8771  -5.8609  -5.7341  -5.7341  -5.6966  -5.6966  -4.4224
    -4.3681  -3.5670  -3.5670  -3.5505  -3.5505  -3.5167  -3.4859  -3.4822
    -3.4822  -3.4804  -3.4804  -2.8272  -2.7605  -2.2150  -2.2150  -2.1091
    -2.0618  -2.0512  -2.0512  -2.0081  -2.0081  -1.9369  -1.9342  -1.9296
    -1.9296  -1.9194  -1.9194  -1.9158  -1.9141  -1.9085  -1.9085  -1.8998
    -1.8998  -1.8994  -1.8994  -1.8988  -1.8900  -1.8900  -1.8780  -0.1636
     0.0567   0.0567   0.0602   0.4373   0.6019   0.7536   0.7536   0.7561
     0.7561   1.1936   1.3084   1.5333   1.5333   1.5338   1.5338   1.5875
     1.5906   1.6318   1.6318   1.6344   1.6344   2.3329   2.4825   2.5056
     2.5056   2.6492   2.6629   2.6629   2.7543   2.7608   2.7608   2.7618
     2.7621   2.7621   2.7665   2.7742   2.7802   2.7802   2.7811   2.7811
     2.7866   2.7866   2.7952   2.7952   2.8083   4.5326   4.5906   4.6932
     4.6932   4.7709   4.7709   4.8677   4.8875   4.8875   4.8952   4.9043
     4.9043   4.9265   5.0629   5.0629   5.1139   5.1139   5.2022   5.2049
     5.2049   5.2136   5.2136   5.2268   5.2399   5.7140   5.8080   5.8080
     5.8260   5.8260   5.8760   5.9042   5.9435   5.9435   5.9437   5.9437
     5.9662   6.4897   6.5140   6.5646   6.5646   6.6398   6.6398   6.7266
     6.8062   6.8062   6.8365   6.8402   6.8402   6.8446   6.8446   6.8545
     6.8600   6.8600   6.8667   6.8689   6.8689   6.8704   6.8704   6.8773
     6.8833   6.9747   6.9759   6.9759   6.9786   6.9786   6.9836   6.9886
     7.0073   7.2211   7.2211   7.2488   7.2488   7.2494   7.2566   8.3068
     8.4143   8.4143   8.4207   8.4207   8.6603   8.6665   8.7042   8.7042
     8.7059   8.7143   8.7143   8.7143   8.7143   8.7151   8.7179   8.7318
     8.7318   8.7418   8.7507   8.7518   8.7518   8.7520   8.7520   8.9753
     9.0641   9.0641   9.0855   9.1326   9.1326   9.3903   9.4003   9.4003
     9.4170   9.4170   9.4520   9.4815   9.4872   9.4872   9.4954   9.4996
     9.4996  10.4073  10.4073  10.4121  10.5122  10.5122  10.5959  10.6075
    10.6097  10.6097  10.6460  10.6470  10.6470  10.8037  10.8037  10.8066
    10.8066  10.8114  10.8198  10.8207  10.8207  11.6826  11.6826  11.7156
    11.8515  11.8515  11.8944  11.9041  11.9047  11.9047  11.9057  11.9067
    11.9067  11.9089  11.9089  11.9283  11.9283  13.6405  13.6405  13.6561
    17.2971  17.5515  18.0745  18.0745  18.1476  18.1476  18.2146  18.3647
    18.4602  18.4602  18.4783  18.4783  18.9455  19.0983  19.2088  19.2088
    19.3523  19.5590  19.6371  19.6371  19.6887  19.6887  19.8134  19.8134
    19.8152  19.8152  19.8223  19.8329  19.8329  19.8335  19.8344  19.8411
    19.8411  19.8435  19.8451  19.8451  19.8463  19.8463  19.8608  20.7071
    20.8694  21.1269  21.1269  21.1865

     highest occupied, lowest unoccupied level (ev):    17.2971   17.5515

!    total energy              =   -1473.06456646 Ry
     Harris-Foulkes estimate   =   -1473.06456646 Ry
     estimated scf accuracy    <          3.3E-11 Ry

     The total energy is the sum of the following terms:

     one-electron contribution =     518.14705047 Ry
     hartree contribution      =     127.90230964 Ry
     xc contribution           =    -460.51895740 Ry
     ewald contribution        =   -1658.59496916 Ry

     convergence has been achieved in  15 iterations

     Forces acting on atoms (cartesian axes, Ry/au):

     atom    1 type  2   force =     0.29344550   -0.29344555   -0.29344548
     atom    2 type  2   force =    -0.29334777    0.29334778    0.29334779
     atom    3 type  1   force =    -0.01707963    0.01707965    0.04616477
     atom    4 type  1   force =     0.01579635   -0.01579635   -0.00421792
     atom    5 type  1   force =    -0.00707619    0.00707620    0.00095866
     atom    6 type  1   force =     0.00703315   -0.00703316   -0.00090160
     atom    7 type  1   force =    -0.01575962    0.01575962    0.00426640
     atom    8 type  1   force =     0.01714033   -0.01714031   -0.04610839
     atom    9 type  1   force =    -0.04616473    0.01707961    0.01707961
     atom   10 type  1   force =     0.00421790   -0.01579636   -0.01579634
     atom   11 type  1   force =     0.00202358    0.00017190   -0.00202357
     atom   12 type  1   force =    -0.00024044    0.00186274    0.00024041
     atom   13 type  1   force =     0.00257094   -0.00212666   -0.00310709
     atom   14 type  1   force =    -0.00357411   -0.00621755   -0.00222376
     atom   15 type  1   force =    -0.00778841    0.01696507   -0.00183778
     atom   16 type  1   force =    -0.00179946   -0.01691980   -0.00782151
     atom   17 type  1   force =    -0.00095865    0.00707616    0.00707620
     atom   18 type  1   force =     0.00090162   -0.00703314   -0.00703314
     atom   19 type  1   force =     0.00310710   -0.00212668   -0.00257095
     atom   20 type  1   force =     0.00222376   -0.00621751    0.00357414
     atom   21 type  1   force =    -0.00063538    0.00390177    0.00063530
     atom   22 type  1   force =     0.00058953   -0.00385270   -0.00058954
     atom   23 type  1   force =    -0.00218240    0.00617559   -0.00353023
     atom   24 type  1   force =    -0.00306358    0.00208466    0.00261387
     atom   25 type  1   force =    -0.00426637    0.01575963    0.01575961
     atom   26 type  1   force =     0.04610837   -0.01714034   -0.01714032
     atom   27 type  1   force =     0.00183778    0.01696505    0.00778840
     atom   28 type  1   force =     0.00782152   -0.01691981    0.00179943
     atom   29 type  1   force =     0.00353027    0.00617563    0.00218237
     atom   30 type  1   force =    -0.00261387    0.00208465    0.00306359
     atom   31 type  1   force =     0.00027444   -0.00182014   -0.00027445
     atom   32 type  1   force =    -0.00198514   -0.00012383    0.00198509
     atom   33 type  1   force =    -0.01707964    0.04616475    0.01707964
     atom   34 type  1   force =     0.01579636   -0.00421789   -0.01579634
     atom   35 type  1   force =    -0.00017190   -0.00202358   -0.00202357
     atom   36 type  1   force =    -0.00186269    0.00024040    0.00024044
     atom   37 type  1   force =     0.00212669   -0.00257099   -0.00310711
     atom   38 type  1   force =     0.00621757    0.00357411   -0.00222379
     atom   39 type  1   force =    -0.01696508    0.00778840   -0.00183779
     atom   40 type  1   force =     0.01691981    0.00179946   -0.00782153
     atom   41 type  1   force =     0.00202357   -0.00202359    0.00017187
     atom   42 type  1   force =    -0.00024043    0.00024042    0.00186269
     atom   43 type  1   force =     0.00007646   -0.00007646   -0.00007644
     atom   44 type  1   force =     0.00047832   -0.00047832   -0.00047830
     atom   45 type  1   force =    -0.00066203    0.00066208   -0.00035308
     atom   46 type  1   force =     0.00114289   -0.00114287    0.00233920
     atom   47 type  1   force =    -0.00247912    0.00247911   -0.00679086
     atom   48 type  1   force =    -0.00168211    0.00168208    0.00491978
     atom   49 type  1   force =     0.00310710   -0.00257097   -0.00212664
     atom   50 type  1   force =     0.00222375    0.00357414   -0.00621753
     atom   51 type  1   force =     0.00035309    0.00066206    0.00066208
     atom   52 type  1   force =    -0.00233924   -0.00114291   -0.00114287
     atom   53 type  1   force =    -0.00265796   -0.00107950    0.00265797
     atom   54 type  1   force =    -0.00079386   -0.00264171    0.00079387
     atom   55 type  1   force =    -0.00197038    0.00088970   -0.00121568
     atom   56 type  1   force =     0.00192579    0.00118007   -0.00092390
     atom   57 type  1   force =     0.00183781    0.00778841    0.01696507
     atom   58 type  1   force =     0.00782153    0.00179944   -0.01691981
     atom   59 type  1   force =     0.00679088    0.00247913    0.00247910
     atom   60 type  1   force =    -0.00491978    0.00168209    0.00168208
     atom   61 type  1   force =     0.00121568    0.00088968    0.00197040
     atom   62 type  1   force =     0.00092396    0.00118006   -0.00192581
     atom   63 type  1   force =     0.00164382   -0.00487859   -0.00164379
     atom   64 type  1   force =     0.00244108    0.00683267   -0.00244107
     atom   65 type  1   force =    -0.00707617    0.00095867    0.00707619
     atom   66 type  1   force =     0.00703314   -0.00090160   -0.00703311
     atom   67 type  1   force =     0.00212667   -0.00310706   -0.00257099
     atom   68 type  1   force =     0.00621752   -0.00222375    0.00357416
     atom   69 type  1   force =    -0.00390179    0.00063533    0.00063534
     atom   70 type  1   force =     0.00385271   -0.00058955   -0.00058951
     atom   71 type  1   force =    -0.00617560    0.00218238   -0.00353026
     atom   72 type  1   force =    -0.00208463    0.00306355    0.00261387
     atom   73 type  1   force =     0.00257095   -0.00310710   -0.00212661
     atom   74 type  1   force =    -0.00357412   -0.00222377   -0.00621756
     atom   75 type  1   force =    -0.00066207   -0.00035308    0.00066205
     atom   76 type  1   force =     0.00114291    0.00233923   -0.00114286
     atom   77 type  1   force =     0.00107947    0.00265799    0.00265797
     atom   78 type  1   force =     0.00264168    0.00079389    0.00079386
     atom   79 type  1   force =    -0.00088967    0.00197041   -0.00121567
     atom   80 type  1   force =    -0.00118003   -0.00192579   -0.00092394
     atom   81 type  1   force =    -0.00063533    0.00063535    0.00390180
     atom   82 type  1   force =     0.00058952   -0.00058953   -0.00385275
     atom   83 type  1   force =    -0.00265794    0.00265796   -0.00107949
     atom   84 type  1   force =    -0.00079385    0.00079386   -0.00264172
     atom   85 type  1   force =     0.00361057   -0.00361060   -0.00361059
     atom   86 type  1   force =    -0.00365935    0.00365932    0.00365932
     atom   87 type  1   force =     0.00083722   -0.00083726    0.00268355
     atom   88 type  1   force =     0.00269962   -0.00269961    0.00112281
     atom   89 type  1   force =     0.00353023    0.00218238    0.00617561
     atom   90 type  1   force =    -0.00261387    0.00306361    0.00208466
     atom   91 type  1   force =     0.00121568    0.00197038    0.00088966
     atom   92 type  1   force =     0.00092395   -0.00192582    0.00118004
     atom   93 type  1   force =    -0.00268358   -0.00083721   -0.00083724
     atom   94 type  1   force =    -0.00112284   -0.00269964   -0.00269959
     atom   95 type  1   force =    -0.00110826   -0.00229619    0.00110827
     atom   96 type  1   force =     0.00069646    0.00039543   -0.00069645
     atom   97 type  1   force =    -0.01575963    0.00426641    0.01575963
     atom   98 type  1   force =     0.01714033   -0.04610838   -0.01714035
     atom   99 type  1   force =    -0.01696510   -0.00183778    0.00778840
     atom  100 type  1   force =     0.01691982   -0.00782153    0.00179944
     atom  101 type  1   force =    -0.00617562   -0.00353026    0.00218234
     atom  102 type  1   force =    -0.00208465    0.00261384    0.00306357
     atom  103 type  1   force =     0.00182017   -0.00027449   -0.00027449
     atom  104 type  1   force =     0.00012381    0.00198514    0.00198513
     atom  105 type  1   force =    -0.00778841   -0.00183779    0.01696507
     atom  106 type  1   force =    -0.00179944   -0.00782153   -0.01691982
     atom  107 type  1   force =    -0.00247915   -0.00679085    0.00247913
     atom  108 type  1   force =    -0.00168210    0.00491969    0.00168206
     atom  109 type  1   force =    -0.00088966   -0.00121568    0.00197038
     atom  110 type  1   force =    -0.00118002   -0.00092395   -0.00192581
     atom  111 type  1   force =     0.00487858   -0.00164379   -0.00164381
     atom  112 type  1   force =    -0.00683263   -0.00244104   -0.00244103
     atom  113 type  1   force =    -0.00218239   -0.00353021    0.00617561
     atom  114 type  1   force =    -0.00306360    0.00261389    0.00208466
     atom  115 type  1   force =    -0.00197032   -0.00121568    0.00088967
     atom  116 type  1   force =     0.00192582   -0.00092393    0.00118006
     atom  117 type  1   force =     0.00083721    0.00268355   -0.00083722
     atom  118 type  1   force =     0.00269962    0.00112284   -0.00269959
     atom  119 type  1   force =     0.00229622    0.00110827    0.00110827
     atom  120 type  1   force =    -0.00039543   -0.00069647   -0.00069644
     atom  121 type  1   force =     0.00027443   -0.00027445   -0.00182015
     atom  122 type  1   force =    -0.00198513    0.00198511   -0.00012381
     atom  123 type  1   force =     0.00164380   -0.00164380   -0.00487861
     atom  124 type  1   force =     0.00244104   -0.00244104    0.00683261
     atom  125 type  1   force =    -0.00110829    0.00110826   -0.00229621
     atom  126 type  1   force =     0.00069646   -0.00069647    0.00039542
     atom  127 type  1   force =    -0.00051652    0.00051652    0.00051651
     atom  128 type  1   force =    -0.00011675    0.00011675    0.00011672

     Total force =     0.736647     Total SCF correction =     0.000019


     Computing stress (Cartesian axis) and pressure

          total   stress  (Ry/bohr**3)                   (kbar)     P=  -45.09
  -0.00030652  -0.00018776  -0.00018776        -45.09    -27.62    -27.62
  -0.00018776  -0.00030652   0.00018776        -27.62    -45.09     27.62
  -0.00018776   0.00018776  -0.00030652        -27.62     27.62    -45.09


     BFGS Geometry Optimization

     number of scf cycles    =   1
     number of bfgs steps    =   0

     enthalpy new            =   -1473.0645664553 Ry

     new trust radius        =       0.5000000000 bohr
     new conv_thr            =            1.0E-10 Ry

     new unit-cell volume =   4711.11228 a.u.^3 (   698.11481 Ang^3 )
     density =      3.66638 g/cm^3

CELL_PARAMETERS (alat= 26.81370204)
  -0.498539717   0.004617766   0.498539717
  -0.004617766   0.498539718   0.498539718
  -0.498539719   0.498539719   0.004617765

ATOMIC_POSITIONS (crystal)
N       -0.010765953  -0.010765957  -0.010765958
N        0.073262370   0.073262371   0.073262370
C        0.001693697   0.001693698   0.249559542
C        0.062345253   0.062345253   0.311495672
C        0.000035171   0.000035172   0.500484053
C        0.062466922   0.062466922   0.562017012
C        0.000156526   0.000156526   0.750999855
C        0.060808371   0.060808372   0.812933938
C        0.001693696   0.249559541   0.001693696
C        0.062345254   0.311495671   0.062345253
C       -0.000154789   0.250006307   0.250006306
C        0.062449302   0.312568339   0.312568341
C       -0.000130293   0.249902307   0.499941648
C        0.062777652   0.312059177   0.562484603
C       -0.000404099   0.250269250   0.750975582
C        0.062899818   0.311526270   0.812232220
C        0.000035173   0.500484052   0.000035170
C        0.062466921   0.562017014   0.062466921
C       -0.000130293   0.499941646   0.249902306
C        0.062777652   0.562484605   0.312059178
C       -0.000096530   0.500143146   0.500143152
C        0.062598090   0.562358651   0.562358652
C       -0.000276020   0.500016985   0.750436156
C        0.062631813   0.562559983   0.812592981
C        0.000156524   0.750999856   0.000156526
C        0.060808372   0.812933936   0.060808371
C       -0.000404099   0.750975582   0.250269249
C        0.062899816   0.812232219   0.311526270
C       -0.000276024   0.750436158   0.500016986
C        0.062631813   0.812592981   0.562559982
C        0.000046640   0.749933222   0.749933223
C        0.062650203   0.812495455   0.812495459
C        0.249559542   0.001693697   0.001693697
C        0.311495670   0.062345254   0.062345253
C        0.250006307  -0.000154789   0.250006306
C        0.312568340   0.062449303   0.312568337
C        0.249902307  -0.000130294   0.499941645
C        0.312059175   0.062777652   0.562484603
C        0.250269250  -0.000404100   0.750975583
C        0.311526269   0.062899817   0.812232220
C        0.250006306   0.250006305  -0.000154788
C        0.312568339   0.312568338   0.062449303
C        0.249997196   0.249997196   0.249997194
C        0.312482452   0.312482452   0.312482451
C        0.249987044   0.249987048   0.500061533
C        0.312585820   0.312585822   0.562330319
C        0.249750856   0.249750856   0.750431052
C        0.312680498   0.312680496   0.812442929
C        0.249902308   0.499941647  -0.000130295
C        0.312059177   0.562484604   0.062777653
C        0.249987047   0.500061534   0.249987045
C        0.312585824   0.562330317   0.312585820
C        0.250234636   0.499960396   0.499960395
C        0.312655170   0.562403081   0.562403080
C        0.249995047   0.499915751   0.750149532
C        0.312352156   0.562580052   0.812506537
C        0.250269248   0.750975584  -0.000404100
C        0.311526270   0.812232219   0.062899817
C        0.249750854   0.750431053   0.249750857
C        0.312680497   0.812442928   0.312680497
C        0.249995049   0.750149532   0.499915749
C        0.312352153   0.812506538   0.562580050
C        0.250058370   0.749821015   0.749821013
C        0.312070206   0.812750678   0.812750677
C        0.500484052   0.000035172   0.000035171
C        0.562017014   0.062466923   0.062466920
C        0.499941644  -0.000130293   0.249902309
C        0.562484605   0.062777653   0.312059177
C        0.500143150  -0.000096531   0.500143149
C        0.562358653   0.062598091   0.562358650
C        0.500016985  -0.000276022   0.750436157
C        0.562559983   0.062631812   0.812592979
C        0.499941649   0.249902309  -0.000130296
C        0.562484603   0.312059176   0.062777652
C        0.500061533   0.249987045   0.249987047
C        0.562330317   0.312585824   0.312585820
C        0.499960396   0.250234636   0.499960397
C        0.562403080   0.312655170   0.562403083
C        0.499915749   0.249995049   0.750149531
C        0.562580049   0.312352156   0.812506537
C        0.500143149   0.500143150  -0.000096531
C        0.562358650   0.562358650   0.062598093
C        0.499960395   0.499960396   0.250234634
C        0.562403080   0.562403081   0.312655170
C        0.499867535   0.499867533   0.499867534
C        0.562634255   0.562634252   0.562634255
C        0.500098456   0.500098453   0.749840112
C        0.562541193   0.562541194   0.812260719
C        0.500016987   0.750436156  -0.000276021
C        0.562559982   0.812592982   0.062631814
C        0.499915750   0.750149531   0.249995048
C        0.562580050   0.812506537   0.312352154
C        0.500098454   0.749840112   0.500098456
C        0.562541197   0.812260718   0.562541193
C        0.500165563   0.749915757   0.749915757
C        0.562434389   0.812514508   0.812514507
C        0.750999855   0.000156526   0.000156526
C        0.812933936   0.060808371   0.060808372
C        0.750975583  -0.000404100   0.250269251
C        0.812232219   0.062899817   0.311526269
C        0.750436156  -0.000276024   0.500016987
C        0.812592982   0.062631812   0.562559982
C        0.749933221   0.000046637   0.749933222
C        0.812495457   0.062650204   0.812495458
C        0.750975583   0.250269249  -0.000404099
C        0.812232219   0.311526269   0.062899817
C        0.750431053   0.249750856   0.249750857
C        0.812442930   0.312680493   0.312680495
C        0.750149531   0.249995048   0.499915750
C        0.812506536   0.312352155   0.562580049
C        0.749821013   0.250058370   0.749821015
C        0.812750677   0.312070210   0.812750676
C        0.750436156   0.500016987  -0.000276020
C        0.812592981   0.562559983   0.062631814
C        0.750149528   0.499915752   0.249995046
C        0.812506537   0.562580051   0.312352154
C        0.749840114   0.500098454   0.500098455
C        0.812260719   0.562541196   0.562541194
C        0.749915756   0.500165565   0.749915756
C        0.812514509   0.562434389   0.812514507
C        0.749933223   0.749933221   0.000046640
C        0.812495458   0.812495457   0.062650203
C        0.749821013   0.749821013   0.250058371
C        0.812750675   0.812750675   0.312070210
C        0.749915757   0.749915755   0.500165565
C        0.812514508   0.812514507   0.562434389
C        0.750018950   0.750018950   0.750018950
C        0.812504282   0.812504282   0.812504284



     Writing output data file n2.save
     NEW-OLD atomic charge density approx. for the potential
     extrapolated charge  502.18470, renormalised to  514.00000

     total cpu time spent up to now is       70.6 secs

     per-process dynamical memory:    64.4 Mb

     Self-consistent Calculation

     iteration #  1     ecut=    50.00 Ry     beta=0.70
     Davidson diagonalization with overlap
     ethr =  1.00E-06,  avg # of iterations = 18.0

     total cpu time spent up to now is       81.7 secs

     total energy              =   -1473.30680801 Ry
     Harris-Foulkes estimate   =   -1465.44791836 Ry
     estimated scf accuracy    <       0.39914201 Ry

     iteration #  2     ecut=    50.00 Ry     beta=0.70
     Davidson diagonalization with overlap
     ethr =  7.77E-05,  avg # of iterations = 13.0

     total cpu time spent up to now is       86.8 secs

     total energy              =   -1473.38900027 Ry
     Harris-Foulkes estimate   =   -1473.39480035 Ry
     estimated scf accuracy    <       0.03683236 Ry

     iteration #  3     ecut=    50.00 Ry     beta=0.70
     Davidson diagonalization with overlap
     ethr =  7.17E-06,  avg # of iterations = 17.0

     total cpu time spent up to now is       91.2 secs

     total energy              =   -1473.38748629 Ry
     Harris-Foulkes estimate   =   -1473.39106744 Ry
     estimated scf accuracy    <       0.01287220 Ry

     iteration #  4     ecut=    50.00 Ry     beta=0.70
     Davidson diagonalization with overlap
     ethr =  2.50E-06,  avg # of iterations = 11.0

     total cpu time spent up to now is       94.9 secs

     total energy              =   -1473.38813551 Ry
     Harris-Foulkes estimate   =   -1473.38863609 Ry
     estimated scf accuracy    <       0.00197515 Ry

     iteration #  5     ecut=    50.00 Ry     beta=0.70
     Davidson diagonalization with overlap
     ethr =  3.84E-07,  avg # of iterations = 10.0

     total cpu time spent up to now is       98.8 secs

     total energy              =   -1473.38823378 Ry
     Harris-Foulkes estimate   =   -1473.38833896 Ry
     estimated scf accuracy    <       0.00034488 Ry

     iteration #  6     ecut=    50.00 Ry     beta=0.70
     Davidson diagonalization with overlap
     ethr =  6.71E-08,  avg # of iterations =  9.0

     total cpu time spent up to now is      102.6 secs

     total energy              =   -1473.38826355 Ry
     Harris-Foulkes estimate   =   -1473.38827518 Ry
     estimated scf accuracy    <       0.00003903 Ry

     iteration #  7     ecut=    50.00 Ry     beta=0.70
     Davidson diagonalization with overlap
     ethr =  7.59E-09,  avg # of iterations =  9.0

     total cpu time spent up to now is      106.6 secs

     total energy              =   -1473.38826792 Ry
     Harris-Foulkes estimate   =   -1473.38826927 Ry
     estimated scf accuracy    <       0.00000443 Ry

     iteration #  8     ecut=    50.00 Ry     beta=0.70
     Davidson diagonalization with overlap
     ethr =  8.61E-10,  avg # of iterations =  8.0

     total cpu time spent up to now is      110.4 secs

     total energy              =   -1473.38826839 Ry
     Harris-Foulkes estimate   =   -1473.38826859 Ry
     estimated scf accuracy    <       0.00000078 Ry

     iteration #  9     ecut=    50.00 Ry     beta=0.70
     Davidson diagonalization with overlap
     ethr =  1.51E-10,  avg # of iterations =  8.0

     total cpu time spent up to now is      113.6 secs

     total energy              =   -1473.38826845 Ry
     Harris-Foulkes estimate   =   -1473.38826849 Ry
     estimated scf accuracy    <       0.00000012 Ry

     iteration # 10     ecut=    50.00 Ry     beta=0.70
     Davidson diagonalization with overlap
     c_bands:  1 eigenvalues not converged
     ethr =  2.24E-11,  avg # of iterations = 20.0

     total cpu time spent up to now is      121.5 secs

     total energy              =   -1473.38826846 Ry
     Harris-Foulkes estimate   =   -1473.38826847 Ry
     estimated scf accuracy    <       0.00000001 Ry

     iteration # 11     ecut=    50.00 Ry     beta=0.70
     Davidson diagonalization with overlap
     c_bands:  2 eigenvalues not converged
     ethr =  2.38E-12,  avg # of iterations = 20.0

     total cpu time spent up to now is      129.1 secs

     total energy              =   -1473.38826847 Ry
     Harris-Foulkes estimate   =   -1473.38826847 Ry
     estimated scf accuracy    <          1.7E-09 Ry

     iteration # 12     ecut=    50.00 Ry     beta=0.70
     Davidson diagonalization with overlap
     c_bands:  2 eigenvalues not converged
     ethr =  3.27E-13,  avg # of iterations = 20.0

     total cpu time spent up to now is      137.5 secs

     total energy              =   -1473.38826847 Ry
     Harris-Foulkes estimate   =   -1473.38826847 Ry
     estimated scf accuracy    <          2.3E-10 Ry

     iteration # 13     ecut=    50.00 Ry     beta=0.70
     Davidson diagonalization with overlap
     ethr =  1.00E-13,  avg # of iterations =  9.0

     total cpu time spent up to now is      140.2 secs

     End of self-consistent calculation

          k = 0.0000 0.0000 0.0000 ( 28763 PWs)   bands (ev):

    -8.1205  -6.9474  -6.8002  -6.1882  -6.1872  -6.1872  -6.1720  -6.1530
    -6.1530  -5.8464  -5.7371  -5.6007  -5.6007  -5.5913  -5.5913  -4.3212
    -3.8441  -3.4215  -3.4215  -3.3788  -3.3788  -3.3466  -3.3457  -3.3457
    -3.2986  -3.2846  -3.2846  -2.7232  -2.3271  -2.1003  -2.0133  -2.0133
    -1.8612  -1.8612  -1.8250  -1.8250  -1.8209  -1.7928  -1.7778  -1.7778
    -1.7754  -1.7589  -1.7589  -1.7391  -1.6998  -1.6996  -1.6996  -1.6941
    -1.6941  -1.6732  -1.6732  -1.6729  -1.6708  -1.6708  -1.6403   0.0211
     0.2298   0.2298   0.2826   0.5966   0.9531   0.9531   0.9900   0.9900
     1.0521   1.4076   1.7291   1.7291   1.7458   1.7458   1.7590   1.8340
     1.8733   1.8733   1.9541   1.9541   1.9867   2.5515   2.7932   2.7932
     2.7961   2.7961   2.8263   2.9023   2.9191   2.9191   2.9422   2.9422
     2.9525   3.0114   3.0114   3.0303   3.0394   3.0450   3.0450   3.0599
     3.0599   3.0700   3.0871   3.0871   3.1303   4.8361   4.8792   4.8792
     4.9894   4.9894   5.0830   5.1197   5.1319   5.1749   5.1749   5.1875
     5.1875   5.3154   5.3154   5.3390   5.3390   5.3756   5.3986   5.3986
     5.4340   5.4374   5.4616   5.4616   5.4804   5.9838   5.9838   6.0002
     6.1256   6.1256   6.1399   6.1598   6.1598   6.2058   6.2058   6.2482
     6.2939   6.7024   6.7024   6.7967   6.9781   6.9781   6.9914   7.0421
     7.0785   7.0804   7.0804   7.0855   7.0855   7.0916   7.1070   7.1070
     7.1209   7.1209   7.1424   7.1464   7.1515   7.1575   7.1575   7.1737
     7.1956   7.1956   7.2823   7.3082   7.3129   7.3129   7.3264   7.3264
     7.4066   7.4166   7.4166   7.5475   7.5475   7.6217   7.6328   8.7021
     8.7021   8.7418   8.7418   8.8590   8.8647   8.9111   8.9111   8.9246
     8.9246   8.9371   8.9371   8.9547   8.9669   8.9669   9.0417   9.0800
     9.0863   9.0869   9.1084   9.1084   9.1094   9.1094   9.1325   9.3633
     9.3633   9.3646   9.5135   9.5135   9.5794   9.5799   9.6774   9.6774
     9.6807   9.6807   9.8103   9.8103   9.8129   9.8129   9.8653   9.8697
    10.0316  10.6959  10.6959  10.8331  10.8331  10.8928  10.9348  10.9348
    10.9746  10.9746  10.9809  11.0043  11.0272  11.0987  11.0987  11.1103
    11.1103  11.1477  11.2508  11.2508  11.3557  12.0430  12.0430  12.1446
    12.1608  12.1608  12.2002  12.2002  12.2201  12.2330  12.2330  12.2695
    12.3225  12.3225  12.3490  12.3490  12.7457  14.0448  14.0448  14.1667
    15.4156  18.4092  18.5796  18.5796  18.6294  18.6294  18.7003  18.8512
    18.8512  18.9578  19.0096  19.1249  19.1249  19.5535  19.8308  19.8308
    20.0687  20.0687  20.0760  20.0789  20.0900  20.1418  20.1418  20.1682
    20.1682  20.1838  20.1877  20.3527  20.3527  20.4007  20.4072  20.4072
    20.4415  20.4596  20.4596  20.4733  20.4733  20.5181  20.5181  20.9355
    21.7231  21.8506  21.8506  21.8546

     highest occupied, lowest unoccupied level (ev):    15.4156   18.4092

!    total energy              =   -1473.38826847 Ry
     Harris-Foulkes estimate   =   -1473.38826847 Ry
     estimated scf accuracy    <          7.1E-11 Ry

     The total energy is the sum of the following terms:

     one-electron contribution =     532.34184235 Ry
     hartree contribution      =     127.55371916 Ry
     xc contribution           =    -463.19244194 Ry
     ewald contribution        =   -1670.09138804 Ry

     convergence has been achieved in  13 iterations

     Forces acting on atoms (cartesian axes, Ry/au):

     atom    1 type  2   force =     0.02767786   -0.02767781   -0.02767793
     atom    2 type  2   force =    -0.02733242    0.02733241    0.02733242
     atom    3 type  1   force =     0.00016561   -0.00016561    0.02417896
     atom    4 type  1   force =    -0.04630239    0.04630238   -0.01468312
     atom    5 type  1   force =     0.00073817   -0.00073817    0.00960571
     atom    6 type  1   force =    -0.00101336    0.00101337   -0.00962599
     atom    7 type  1   force =     0.04629998   -0.04629997    0.01465047
     atom    8 type  1   force =    -0.00016943    0.00016940   -0.02427223
     atom    9 type  1   force =    -0.02417895   -0.00016554   -0.00016554
     atom   10 type  1   force =     0.01468315    0.04630240    0.04630240
     atom   11 type  1   force =     0.00016331   -0.00329706   -0.00016334
     atom   12 type  1   force =     0.00326815   -0.00615610   -0.00326813
     atom   13 type  1   force =    -0.00484729    0.00109010    0.00202344
     atom   14 type  1   force =     0.00180105    0.00311967   -0.00537866
     atom   15 type  1   force =    -0.01019787   -0.00882728   -0.01540733
     atom   16 type  1   force =    -0.01541049    0.00882480   -0.01020129
     atom   17 type  1   force =    -0.00960574   -0.00073815   -0.00073819
     atom   18 type  1   force =     0.00962598    0.00101332    0.00101335
     atom   19 type  1   force =    -0.00202347    0.00109014    0.00484731
     atom   20 type  1   force =     0.00537861    0.00311962   -0.00180109
     atom   21 type  1   force =    -0.00035802   -0.00304283    0.00035810
     atom   22 type  1   force =     0.00037046    0.00303862   -0.00037046
     atom   23 type  1   force =    -0.00540484   -0.00310232    0.00176895
     atom   24 type  1   force =     0.00199814   -0.00107173   -0.00486948
     atom   25 type  1   force =    -0.01465051   -0.04629997   -0.04629996
     atom   26 type  1   force =     0.02427225    0.00016942    0.00016942
     atom   27 type  1   force =     0.01540734   -0.00882725    0.01019788
     atom   28 type  1   force =     0.01020128    0.00882482    0.01541053
     atom   29 type  1   force =    -0.00176898   -0.00310235    0.00540486
     atom   30 type  1   force =     0.00486948   -0.00107172   -0.00199812
     atom   31 type  1   force =    -0.00328584    0.00614513    0.00328586
     atom   32 type  1   force =    -0.00018225    0.00329270    0.00018230
     atom   33 type  1   force =     0.00016557    0.02417894   -0.00016556
     atom   34 type  1   force =    -0.04630241   -0.01468317    0.04630240
     atom   35 type  1   force =     0.00329707   -0.00016333   -0.00016335
     atom   36 type  1   force =     0.00615607   -0.00326809   -0.00326815
     atom   37 type  1   force =    -0.00109012    0.00484734    0.00202348
     atom   38 type  1   force =    -0.00311968   -0.00180106   -0.00537861
     atom   39 type  1   force =     0.00882730    0.01019789   -0.01540733
     atom   40 type  1   force =    -0.00882482    0.01541049   -0.01020126
     atom   41 type  1   force =     0.00016336   -0.00016334   -0.00329702
     atom   42 type  1   force =     0.00326815   -0.00326814   -0.00615604
     atom   43 type  1   force =    -0.00224867    0.00224866    0.00224864
     atom   44 type  1   force =     0.00208382   -0.00208380   -0.00208381
     atom   45 type  1   force =    -0.00087779    0.00087775    0.00278802
     atom   46 type  1   force =    -0.00048419    0.00048419   -0.00491963
     atom   47 type  1   force =     0.00419241   -0.00419242    0.01152649
     atom   48 type  1   force =     0.00188871   -0.00188870   -0.00717418
     atom   49 type  1   force =    -0.00202345    0.00484733    0.00109010
     atom   50 type  1   force =     0.00537866   -0.00180108    0.00311966
     atom   51 type  1   force =    -0.00278803    0.00087778    0.00087774
     atom   52 type  1   force =     0.00491967    0.00048423    0.00048418
     atom   53 type  1   force =     0.00071604    0.00275747   -0.00071603
     atom   54 type  1   force =     0.00237711    0.00164138   -0.00237713
     atom   55 type  1   force =     0.00030892   -0.00010752    0.00383349
     atom   56 type  1   force =    -0.00029874   -0.00381885    0.00012090
     atom   57 type  1   force =     0.01540732    0.01019788   -0.00882729
     atom   58 type  1   force =     0.01020127    0.01541054    0.00882480
     atom   59 type  1   force =    -0.01152649   -0.00419246   -0.00419243
     atom   60 type  1   force =     0.00717417   -0.00188869   -0.00188869
     atom   61 type  1   force =    -0.00383346   -0.00010750   -0.00030897
     atom   62 type  1   force =    -0.00012095   -0.00381884    0.00029875
     atom   63 type  1   force =    -0.00185931    0.00713612    0.00185930
     atom   64 type  1   force =    -0.00418001   -0.01156779    0.00418001
     atom   65 type  1   force =     0.00073817    0.00960573   -0.00073815
     atom   66 type  1   force =    -0.00101334   -0.00962598    0.00101330
     atom   67 type  1   force =    -0.00109014    0.00202342    0.00484735
     atom   68 type  1   force =    -0.00311965   -0.00537863   -0.00180110
     atom   69 type  1   force =     0.00304286    0.00035805    0.00035807
     atom   70 type  1   force =    -0.00303863   -0.00037043   -0.00037049
     atom   71 type  1   force =     0.00310235    0.00540487    0.00176895
     atom   72 type  1   force =     0.00107170   -0.00199810   -0.00486948
     atom   73 type  1   force =    -0.00484731    0.00202346    0.00109006
     atom   74 type  1   force =     0.00180105   -0.00537863    0.00311968
     atom   75 type  1   force =    -0.00087777    0.00278804    0.00087777
     atom   76 type  1   force =    -0.00048423   -0.00491963    0.00048419
     atom   77 type  1   force =    -0.00275742   -0.00071606   -0.00071604
     atom   78 type  1   force =    -0.00164133   -0.00237716   -0.00237710
     atom   79 type  1   force =     0.00010748   -0.00030896    0.00383347
     atom   80 type  1   force =     0.00381879    0.00029873    0.00012094
     atom   81 type  1   force =    -0.00035808    0.00035805   -0.00304288
     atom   82 type  1   force =     0.00037047   -0.00037047    0.00303867
     atom   83 type  1   force =     0.00071602   -0.00071603    0.00275746
     atom   84 type  1   force =     0.00237711   -0.00237712    0.00164134
     atom   85 type  1   force =    -0.00612316    0.00612315    0.00612318
     atom   86 type  1   force =     0.00619171   -0.00619165   -0.00619168
     atom   87 type  1   force =    -0.00239522    0.00239526   -0.00166464
     atom   88 type  1   force =    -0.00073434    0.00073433   -0.00278578
     atom   89 type  1   force =    -0.00176892    0.00540487   -0.00310233
     atom   90 type  1   force =     0.00486947   -0.00199816   -0.00107173
     atom   91 type  1   force =    -0.00383347   -0.00030892   -0.00010749
     atom   92 type  1   force =    -0.00012095    0.00029878   -0.00381886
     atom   93 type  1   force =     0.00166467    0.00239520    0.00239523
     atom   94 type  1   force =     0.00278581    0.00073437    0.00073431
     atom   95 type  1   force =     0.00046571    0.00490158   -0.00046568
     atom   96 type  1   force =     0.00086074   -0.00280131   -0.00086076
     atom   97 type  1   force =     0.04629996    0.01465047   -0.04629998
     atom   98 type  1   force =    -0.00016943   -0.02427224    0.00016945
     atom   99 type  1   force =     0.00882730   -0.01540734    0.01019789
     atom  100 type  1   force =    -0.00882483   -0.01020126    0.01541052
     atom  101 type  1   force =     0.00310236    0.00176895    0.00540490
     atom  102 type  1   force =     0.00107172   -0.00486947   -0.00199813
     atom  103 type  1   force =    -0.00614518    0.00328589    0.00328590
     atom  104 type  1   force =    -0.00329268    0.00018225    0.00018228
     atom  105 type  1   force =    -0.01019788   -0.01540734   -0.00882727
     atom  106 type  1   force =    -0.01541053   -0.01020126    0.00882481
     atom  107 type  1   force =     0.00419248    0.01152645   -0.00419246
     atom  108 type  1   force =     0.00188871   -0.00717408   -0.00188867
     atom  109 type  1   force =     0.00010748    0.00383346   -0.00030893
     atom  110 type  1   force =     0.00381878    0.00012095    0.00029876
     atom  111 type  1   force =    -0.00713609    0.00185931    0.00185933
     atom  112 type  1   force =     0.01156776    0.00418001    0.00417999
     atom  113 type  1   force =    -0.00540486    0.00176893   -0.00310233
     atom  114 type  1   force =     0.00199815   -0.00486951   -0.00107171
     atom  115 type  1   force =     0.00030885    0.00383345   -0.00010750
     atom  116 type  1   force =    -0.00029877    0.00012092   -0.00381886
     atom  117 type  1   force =    -0.00239523   -0.00166466    0.00239521
     atom  118 type  1   force =    -0.00073436   -0.00278581    0.00073430
     atom  119 type  1   force =    -0.00490161   -0.00046570   -0.00046569
     atom  120 type  1   force =     0.00280130   -0.00086074   -0.00086077
     atom  121 type  1   force =    -0.00328586    0.00328591    0.00614515
     atom  122 type  1   force =    -0.00018227    0.00018231    0.00329270
     atom  123 type  1   force =    -0.00185930    0.00185932    0.00713613
     atom  124 type  1   force =    -0.00418000    0.00417999   -0.01156776
     atom  125 type  1   force =     0.00046571   -0.00046570    0.00490162
     atom  126 type  1   force =     0.00086074   -0.00086075   -0.00280130
     atom  127 type  1   force =    -0.00207363    0.00207359    0.00207362
     atom  128 type  1   force =     0.00226459   -0.00226460   -0.00226457

     Total force =     0.210148     Total SCF correction =     0.000032


     Computing stress (Cartesian axis) and pressure

          total   stress  (Ry/bohr**3)                   (kbar)     P=   66.97
   0.00045527   0.00023407   0.00023407         66.97     34.43     34.43
   0.00023407   0.00045527  -0.00023407         34.43     66.97    -34.43
   0.00023407  -0.00023407   0.00045527         34.43    -34.43     66.97


     number of scf cycles    =   2
     number of bfgs steps    =   1

     enthalpy old            =   -1473.0645664553 Ry
     enthalpy new            =   -1473.3882684658 Ry

     CASE: enthalpy_new < enthalpy_old

     new trust radius        =       0.1610879278 bohr
     new conv_thr            =            4.6E-11 Ry

     new unit-cell volume =   4838.89979 a.u.^3 (   717.05096 Ang^3 )
     density =      3.56956 g/cm^3

CELL_PARAMETERS (alat= 26.81370204)
  -0.500781787   0.000229985   0.500781787
  -0.000229985   0.500781787   0.500781787
  -0.500781786   0.500781786   0.000229986

ATOMIC_POSITIONS (crystal)
N       -0.014228611  -0.014228612  -0.014228608
N        0.076712036   0.076712036   0.076712034
C        0.002928423   0.002928425   0.248610716
C        0.061812393   0.061812393   0.315000789
C        0.000378091   0.000378091   0.500212526
C        0.062123868   0.062123868   0.562308682
C        0.000688659   0.000688659   0.747495000
C        0.059570871   0.059570870   0.813884745
C        0.002928422   0.248610719   0.002928422
C        0.061812394   0.315000789   0.061812392
C       -0.000088032   0.249892715   0.249892716
C        0.062422325   0.312368360   0.312368362
C        0.000041564   0.249820830   0.500065329
C        0.062483614   0.311940733   0.562712888
C       -0.000374180   0.249133847   0.751781250
C        0.062868985   0.310720715   0.813368104
C        0.000378092   0.500212524   0.000378091
C        0.062123869   0.562308682   0.062123867
C        0.000041565   0.500065329   0.249820831
C        0.062483615   0.562712885   0.311940736
C        0.000011277   0.500070221   0.500070223
C        0.062489924   0.562431843   0.562431844
C        0.000017590   0.499787648   0.750556148
C        0.062459780   0.562435671   0.812675658
C        0.000688658   0.747495001   0.000688659
C        0.059570871   0.813884745   0.059570870
C       -0.000374180   0.751781251   0.249133847
C        0.062868985   0.813368104   0.310720715
C        0.000017588   0.750556149   0.499787648
C        0.062459781   0.812675660   0.562435670
C        0.000074292   0.750133186   0.750133186
C        0.062583859   0.812609309   0.812609310
C        0.248610720   0.002928423   0.002928422
C        0.315000790   0.061812393   0.061812393
C        0.249892715  -0.000088033   0.249892715
C        0.312368360   0.062422327   0.312368360
C        0.249820831   0.000041565   0.500065327
C        0.311940734   0.062483614   0.562712886
C        0.249133846  -0.000374179   0.751781251
C        0.310720715   0.062868985   0.813368104
C        0.249892716   0.249892716  -0.000088035
C        0.312368361   0.312368361   0.062422325
C        0.250075706   0.250075706   0.250075705
C        0.312405040   0.312405041   0.312405038
C        0.250081577   0.250081579   0.500040649
C        0.312434225   0.312434227   0.562494867
C        0.250093935   0.250093934   0.749839949
C        0.312471380   0.312471379   0.812545883
C        0.249820831   0.500065329   0.000041564
C        0.311940735   0.562712888   0.062483614
C        0.250081578   0.500040650   0.250081579
C        0.312434226   0.562494867   0.312434225
C        0.250143639   0.500047186   0.500047184
C        0.312468499   0.562437156   0.562437157
C        0.250120548   0.500036908   0.750037107
C        0.312464576   0.562459254   0.812381095
C        0.249133845   0.751781252  -0.000374180
C        0.310720713   0.813368105   0.062868987
C        0.250093934   0.749839949   0.250093934
C        0.312471379   0.812545882   0.312471380
C        0.250120547   0.750037107   0.500036908
C        0.312464575   0.812381096   0.562459253
C        0.249954981   0.750029144   0.750029143
C        0.312662161   0.812406509   0.812406508
C        0.500212525   0.000378093   0.000378091
C        0.562308681   0.062123869   0.062123868
C        0.500065329   0.000041564   0.249820831
C        0.562712887   0.062483615   0.311940736
C        0.500070223   0.000011277   0.500070221
C        0.562431843   0.062489925   0.562431844
C        0.499787647   0.000017589   0.750556149
C        0.562435671   0.062459780   0.812675659
C        0.500065329   0.249820831   0.000041564
C        0.562712887   0.311940734   0.062483615
C        0.500040649   0.250081578   0.250081579
C        0.562494867   0.312434228   0.312434226
C        0.500047185   0.250143639   0.500047184
C        0.562437157   0.312468500   0.562437156
C        0.500036908   0.250120548   0.750037107
C        0.562459254   0.312464576   0.812381095
C        0.500070222   0.500070221   0.000011278
C        0.562431843   0.562431843   0.062489925
C        0.500047185   0.500047185   0.250143637
C        0.562437155   0.562437155   0.312468500
C        0.500052472   0.500052469   0.500052469
C        0.562447319   0.562447319   0.562447320
C        0.500063928   0.500063927   0.750027761
C        0.562453790   0.562453790   0.812352897
C        0.499787648   0.750556150   0.000017589
C        0.562435671   0.812675659   0.062459781
C        0.500036907   0.750037108   0.250120548
C        0.562459252   0.812381094   0.312464577
C        0.500063927   0.750027760   0.500063928
C        0.562453790   0.812352898   0.562453790
C        0.500001977   0.750067095   0.750067092
C        0.562455978   0.812419877   0.812419877
C        0.747495001   0.000688658   0.000688660
C        0.813884745   0.059570870   0.059570871
C        0.751781252  -0.000374180   0.249133846
C        0.813368104   0.062868985   0.310720715
C        0.750556149   0.000017588   0.499787647
C        0.812675659   0.062459779   0.562435670
C        0.750133186   0.000074290   0.750133186
C        0.812609310   0.062583860   0.812609310
C        0.751781252   0.249133846  -0.000374180
C        0.813368104   0.310720714   0.062868987
C        0.749839949   0.250093933   0.250093934
C        0.812545882   0.312471379   0.312471380
C        0.750037108   0.250120547   0.500036907
C        0.812381096   0.312464575   0.562459254
C        0.750029143   0.249954982   0.750029143
C        0.812406508   0.312662164   0.812406509
C        0.750556149   0.499787649   0.000017590
C        0.812675660   0.562435671   0.062459780
C        0.750037107   0.500036907   0.250120547
C        0.812381095   0.562459252   0.312464576
C        0.750027762   0.500063926   0.500063928
C        0.812352899   0.562453789   0.562453791
C        0.750067094   0.500001977   0.750067093
C        0.812419877   0.562455977   0.812419877
C        0.750133186   0.750133187   0.000074294
C        0.812609310   0.812609310   0.062583860
C        0.750029143   0.750029144   0.249954982
C        0.812406508   0.812406507   0.312662164
C        0.750067095   0.750067093   0.500001977
C        0.812419877   0.812419876   0.562455977
C        0.750096328   0.750096326   0.750096327
C        0.812425553   0.812425553   0.812425554



     Writing output data file n2.save
     NEW-OLD atomic charge density approx. for the potential
     extrapolated charge  527.55059, renormalised to  514.00000

     total cpu time spent up to now is      142.6 secs

     per-process dynamical memory:    64.4 Mb

     Self-consistent Calculation

     iteration #  1     ecut=    50.00 Ry     beta=0.70
     Davidson diagonalization with overlap
     c_bands:  3 eigenvalues not converged
     ethr =  1.00E-06,  avg # of iterations = 20.0

     total cpu time spent up to now is      152.3 secs

     total energy              =   -1473.36069888 Ry
     Harris-Foulkes estimate   =   -1482.41136970 Ry
     estimated scf accuracy    <       0.04791619 Ry

     iteration #  2     ecut=    50.00 Ry     beta=0.70
     Davidson diagonalization with overlap
     ethr =  9.32E-06,  avg # of iterations = 11.0

     total cpu time spent up to now is      158.9 secs

     total energy              =   -1473.41090462 Ry
     Harris-Foulkes estimate   =   -1473.41544784 Ry
     estimated scf accuracy    <       0.01937167 Ry

     iteration #  3     ecut=    50.00 Ry     beta=0.70
     Davidson diagonalization with overlap
     ethr =  3.77E-06,  avg # of iterations =  4.0

     total cpu time spent up to now is      160.7 secs

     total energy              =   -1473.40921389 Ry
     Harris-Foulkes estimate   =   -1473.41167639 Ry
     estimated scf accuracy    <       0.00649739 Ry

     iteration #  4     ecut=    50.00 Ry     beta=0.70
     Davidson diagonalization with overlap
     ethr =  1.26E-06,  avg # of iterations = 11.0

     total cpu time spent up to now is      164.2 secs

     total energy              =   -1473.40974108 Ry
     Harris-Foulkes estimate   =   -1473.40991883 Ry
     estimated scf accuracy    <       0.00052798 Ry

     iteration #  5     ecut=    50.00 Ry     beta=0.70
     Davidson diagonalization with overlap
     c_bands:  2 eigenvalues not converged
     ethr =  1.03E-07,  avg # of iterations = 20.0

     total cpu time spent up to now is      172.6 secs

     total energy              =   -1473.40979718 Ry
     Harris-Foulkes estimate   =   -1473.40982650 Ry
     estimated scf accuracy    <       0.00010325 Ry

     iteration #  6     ecut=    50.00 Ry     beta=0.70
     Davidson diagonalization with overlap
     c_bands:  2 eigenvalues not converged
     ethr =  2.01E-08,  avg # of iterations = 20.0

     total cpu time spent up to now is      178.2 secs

     total energy              =   -1473.40979584 Ry
     Harris-Foulkes estimate   =   -1473.40980949 Ry
     estimated scf accuracy    <       0.00003830 Ry

     iteration #  7     ecut=    50.00 Ry     beta=0.70
     Davidson diagonalization with overlap
     c_bands:  2 eigenvalues not converged
     ethr =  7.45E-09,  avg # of iterations = 20.0

     total cpu time spent up to now is      186.1 secs

     total energy              =   -1473.40980003 Ry
     Harris-Foulkes estimate   =   -1473.40980133 Ry
     estimated scf accuracy    <       0.00000442 Ry

     iteration #  8     ecut=    50.00 Ry     beta=0.70
     Davidson diagonalization with overlap
     c_bands:  1 eigenvalues not converged
     ethr =  8.61E-10,  avg # of iterations = 20.0

     total cpu time spent up to now is      194.7 secs

     total energy              =   -1473.40980036 Ry
     Harris-Foulkes estimate   =   -1473.40980089 Ry
     estimated scf accuracy    <       0.00000132 Ry

     iteration #  9     ecut=    50.00 Ry     beta=0.70
     Davidson diagonalization with overlap
     ethr =  2.57E-10,  avg # of iterations = 17.0

     total cpu time spent up to now is      200.8 secs

     total energy              =   -1473.40980052 Ry
     Harris-Foulkes estimate   =   -1473.40980055 Ry
     estimated scf accuracy    <       0.00000009 Ry

     iteration # 10     ecut=    50.00 Ry     beta=0.70
     Davidson diagonalization with overlap
     c_bands:  1 eigenvalues not converged
     ethr =  1.66E-11,  avg # of iterations = 20.0

     total cpu time spent up to now is      210.2 secs

     total energy              =   -1473.40980054 Ry
     Harris-Foulkes estimate   =   -1473.40980054 Ry
     estimated scf accuracy    <          8.5E-09 Ry

     iteration # 11     ecut=    50.00 Ry     beta=0.70
     Davidson diagonalization with overlap
     c_bands:  1 eigenvalues not converged
     ethr =  1.66E-12,  avg # of iterations = 20.0

     total cpu time spent up to now is      215.5 secs

     total energy              =   -1473.40980054 Ry
     Harris-Foulkes estimate   =   -1473.40980054 Ry
     estimated scf accuracy    <          2.3E-09 Ry

     iteration # 12     ecut=    50.00 Ry     beta=0.70
     Davidson diagonalization with overlap
     c_bands:  1 eigenvalues not converged
     ethr =  4.46E-13,  avg # of iterations = 20.0

     total cpu time spent up to now is      224.0 secs

     total energy              =   -1473.40980054 Ry
     Harris-Foulkes estimate   =   -1473.40980054 Ry
     estimated scf accuracy    <          2.2E-10 Ry

     iteration # 13     ecut=    50.00 Ry     beta=0.70
     Davidson diagonalization with overlap
     c_bands:  1 eigenvalues not converged
     ethr =  1.00E-13,  avg # of iterations = 20.0

     total cpu time spent up to now is      230.5 secs

     total energy              =   -1473.40980054 Ry
     Harris-Foulkes estimate   =   -1473.40980054 Ry
     estimated scf accuracy    <          6.1E-11 Ry

     iteration # 14     ecut=    50.00 Ry     beta=0.70
     Davidson diagonalization with overlap
     c_bands:  1 eigenvalues not converged
     ethr =  1.00E-13,  avg # of iterations = 20.0

     total cpu time spent up to now is      234.7 secs

     End of self-consistent calculation

          k = 0.0000 0.0000 0.0000 ( 28763 PWs)   bands (ev):

    -8.2805  -7.1586  -7.1225  -6.3500  -6.3500  -6.3366  -6.3366  -6.3222
    -6.3213  -6.0227  -5.9129  -5.7836  -5.7836  -5.7568  -5.7568  -4.5838
    -4.1108  -3.6308  -3.6308  -3.5904  -3.5904  -3.5651  -3.5651  -3.5486
    -3.5486  -3.5389  -3.5006  -2.9352  -2.6299  -2.3380  -2.3380  -2.1972
    -2.1441  -2.1213  -2.1213  -2.1040  -2.1040  -1.9932  -1.9931  -1.9931
    -1.9888  -1.9888  -1.9865  -1.9865  -1.9828  -1.9715  -1.9710  -1.9688
    -1.9688  -1.9651  -1.9651  -1.9649  -1.9472  -1.9472  -1.9120  -0.1967
     0.0306   0.0306   0.0816   0.3885   0.5885   0.5885   0.7108   0.7566
     0.7566   1.1671   1.3501   1.3501   1.3658   1.4266   1.4266   1.5361
     1.5361   1.5372   1.5532   1.5532   1.5698   2.2920   2.4001   2.4001
     2.4705   2.5556   2.5556   2.6513   2.6513   2.6628   2.7026   2.7052
     2.7052   2.7055   2.7118   2.7118   2.7129   2.7195   2.7251   2.7251
     2.7262   2.7262   2.7555   2.7555   2.9106   4.4851   4.4851   4.4883
     4.5779   4.5779   4.7102   4.7429   4.8060   4.8060   4.8318   4.8548
     4.8548   5.0190   5.0190   5.0755   5.0755   5.1376   5.1457   5.1562
     5.1562   5.1579   5.2247   5.2247   5.2362   5.6378   5.6378   5.7594
     5.7802   5.8707   5.8707   5.8726   5.8726   5.8834   5.8834   5.8900
     5.9668   6.3457   6.3457   6.4744   6.5858   6.5858   6.6121   6.6985
     6.7331   6.7331   6.7618   6.7618   6.7722   6.7771   6.7779   6.7902
     6.7902   6.8019   6.8019   6.8042   6.8042   6.8069   6.8142   6.8589
     6.8608   6.8608   6.8924   6.9183   6.9183   6.9215   6.9484   6.9484
     7.0667   7.1131   7.1131   7.1910   7.1910   7.2363   7.3859   8.2758
     8.2758   8.3075   8.3075   8.5768   8.5908   8.6065   8.6065   8.6304
     8.6304   8.6399   8.6399   8.6416   8.6521   8.6521   8.6559   8.6639
     8.6639   8.6686   8.6686   8.6751   8.6771   8.6996   8.7482   8.9143
     8.9598   8.9598   9.0531   9.0531   9.1751   9.3081   9.3196   9.3196
     9.3212   9.3212   9.3949   9.3949   9.4013   9.4013   9.4298   9.4466
     9.7365  10.2868  10.2868  10.4327  10.4327  10.5092  10.5122  10.5122
    10.5647  10.5647  10.5649  10.5970  10.6108  10.7029  10.7029  10.7157
    10.7157  10.7300  10.7300  10.8102  11.0042  11.5906  11.5906  11.6932
    11.7402  11.7402  11.7756  11.7756  11.7882  11.7882  11.8226  11.8226
    11.8570  11.8570  11.8641  11.8750  12.5173  13.5624  13.5624  13.7764
    14.4244  17.8613  18.0205  18.0205  18.0779  18.0779  18.2148  18.3118
    18.3714  18.3714  18.4293  18.4293  18.6282  19.1348  19.1348  19.2687
    19.4498  19.4883  19.5319  19.5319  19.6541  19.6699  19.6699  19.6936
    19.6936  19.6951  19.6951  19.7112  19.7261  19.7332  19.7371  19.7371
    19.7405  19.7405  19.7738  19.7738  19.8088  20.0151  20.0151  20.5435
    21.0927  21.3055  21.3055  21.3415

     highest occupied, lowest unoccupied level (ev):    14.4244   17.8613

!    total energy              =   -1473.40980054 Ry
     Harris-Foulkes estimate   =   -1473.40980054 Ry
     estimated scf accuracy    <          1.2E-11 Ry

     The total energy is the sum of the following terms:

     one-electron contribution =     511.76266779 Ry
     hartree contribution      =     129.79530076 Ry
     xc contribution           =    -460.40971854 Ry
     ewald contribution        =   -1654.55805055 Ry

     convergence has been achieved in  14 iterations

     Forces acting on atoms (cartesian axes, Ry/au):

     atom    1 type  2   force =    -0.03712182    0.03712183    0.03712187
     atom    2 type  2   force =     0.03763104   -0.03763106   -0.03763103
     atom    3 type  1   force =    -0.01656009    0.01656006    0.00168039
     atom    4 type  1   force =    -0.01414657    0.01414659    0.00877838
     atom    5 type  1   force =    -0.00417236    0.00417235   -0.00837814
     atom    6 type  1   force =     0.00401445   -0.00401444    0.00879837
     atom    7 type  1   force =     0.01406579   -0.01406577   -0.00876999
     atom    8 type  1   force =     0.01657332   -0.01657330   -0.00177520
     atom    9 type  1   force =    -0.00168044    0.01656004    0.01656006
     atom   10 type  1   force =    -0.00877839    0.01414660    0.01414658
     atom   11 type  1   force =    -0.00232109    0.00905170    0.00232111
     atom   12 type  1   force =    -0.00231305    0.00419484    0.00231305
     atom   13 type  1   force =     0.00328254   -0.00177935   -0.00244958
     atom   14 type  1   force =    -0.00699414    0.00217500   -0.00026075
     atom   15 type  1   force =    -0.00151188   -0.00258315   -0.01276297
     atom   16 type  1   force =    -0.01276496    0.00256155   -0.00150273
     atom   17 type  1   force =     0.00837814    0.00417239    0.00417239
     atom   18 type  1   force =    -0.00879838   -0.00401443   -0.00401445
     atom   19 type  1   force =     0.00244959   -0.00177940   -0.00328254
     atom   20 type  1   force =     0.00026080    0.00217501    0.00699416
     atom   21 type  1   force =     0.00294161   -0.00086533   -0.00294160
     atom   22 type  1   force =    -0.00292659    0.00083919    0.00292661
     atom   23 type  1   force =    -0.00026150   -0.00214908   -0.00701416
     atom   24 type  1   force =    -0.00245560    0.00182834    0.00331356
     atom   25 type  1   force =     0.00876999   -0.01406580   -0.01406581
     atom   26 type  1   force =     0.00177518   -0.01657329   -0.01657332
     atom   27 type  1   force =     0.01276295   -0.00258317    0.00151186
     atom   28 type  1   force =     0.00150275    0.00256155    0.01276496
     atom   29 type  1   force =     0.00701413   -0.00214910    0.00026151
     atom   30 type  1   force =    -0.00331357    0.00182833    0.00245554
     atom   31 type  1   force =     0.00232413   -0.00423830   -0.00232413
     atom   32 type  1   force =     0.00232779   -0.00910298   -0.00232779
     atom   33 type  1   force =    -0.01656004    0.00168043    0.01656004
     atom   34 type  1   force =    -0.01414658    0.00877838    0.01414659
     atom   35 type  1   force =    -0.00905170    0.00232110    0.00232112
     atom   36 type  1   force =    -0.00419485    0.00231303    0.00231304
     atom   37 type  1   force =     0.00177936   -0.00328253   -0.00244958
     atom   38 type  1   force =    -0.00217500    0.00699415   -0.00026074
     atom   39 type  1   force =     0.00258315    0.00151185   -0.01276297
     atom   40 type  1   force =    -0.00256154    0.01276496   -0.00150274
     atom   41 type  1   force =    -0.00232113    0.00232111    0.00905168
     atom   42 type  1   force =    -0.00231305    0.00231306    0.00419486
     atom   43 type  1   force =     0.00470919   -0.00470919   -0.00470918
     atom   44 type  1   force =    -0.00300760    0.00300759    0.00300757
     atom   45 type  1   force =     0.00243773   -0.00243773   -0.00503968
     atom   46 type  1   force =    -0.00093101    0.00093099    0.00292115
     atom   47 type  1   force =     0.00151902   -0.00151902   -0.00434029
     atom   48 type  1   force =    -0.00066439    0.00066439    0.00344881
     atom   49 type  1   force =     0.00244959   -0.00328256   -0.00177935
     atom   50 type  1   force =     0.00026077    0.00699416    0.00217498
     atom   51 type  1   force =     0.00503970   -0.00243774   -0.00243773
     atom   52 type  1   force =    -0.00292115    0.00093100    0.00093100
     atom   53 type  1   force =     0.00305875   -0.00194571   -0.00305878
     atom   54 type  1   force =    -0.00263619    0.00265944    0.00263618
     atom   55 type  1   force =     0.00277619   -0.00218000   -0.00340940
     atom   56 type  1   force =    -0.00275256    0.00339924    0.00216674
     atom   57 type  1   force =     0.01276295    0.00151186   -0.00258314
     atom   58 type  1   force =     0.00150274    0.01276493    0.00256156
     atom   59 type  1   force =     0.00434027   -0.00151901   -0.00151901
[...]
     estimated scf accuracy    <       0.00022180 Ry

     iteration #  7     ecut=    50.00 Ry     beta=0.70
     Davidson diagonalization with overlap
     ethr =  4.32E-08,  avg # of iterations =  9.0

     total cpu time spent up to now is      683.2 secs

     total energy              =   -1473.41182021 Ry
     Harris-Foulkes estimate   =   -1473.41185293 Ry
     estimated scf accuracy    <       0.00008060 Ry

     iteration #  8     ecut=    50.00 Ry     beta=0.70
     Davidson diagonalization with overlap
     ethr =  1.57E-08,  avg # of iterations = 14.0

     total cpu time spent up to now is      689.5 secs

     total energy              =   -1473.41183938 Ry
     Harris-Foulkes estimate   =   -1473.41184206 Ry
     estimated scf accuracy    <       0.00000689 Ry

     iteration #  9     ecut=    50.00 Ry     beta=0.70
     Davidson diagonalization with overlap
     ethr =  1.34E-09,  avg # of iterations = 10.0

     total cpu time spent up to now is      694.2 secs

     total energy              =   -1473.41184072 Ry
     Harris-Foulkes estimate   =   -1473.41184089 Ry
     estimated scf accuracy    <       0.00000087 Ry

     iteration # 10     ecut=    50.00 Ry     beta=0.70
     Davidson diagonalization with overlap
     c_bands:  1 eigenvalues not converged
     ethr =  1.69E-10,  avg # of iterations = 20.0

     total cpu time spent up to now is      701.5 secs

     total energy              =   -1473.41184080 Ry
     Harris-Foulkes estimate   =   -1473.41184083 Ry
     estimated scf accuracy    <       0.00000011 Ry

     iteration # 11     ecut=    50.00 Ry     beta=0.70
     Davidson diagonalization with overlap
     c_bands:  1 eigenvalues not converged
     ethr =  2.06E-11,  avg # of iterations = 20.0

     total cpu time spent up to now is      709.4 secs

     total energy              =   -1473.41184081 Ry
     Harris-Foulkes estimate   =   -1473.41184081 Ry
     estimated scf accuracy    <       0.00000002 Ry

     iteration # 12     ecut=    50.00 Ry     beta=0.70
     Davidson diagonalization with overlap
     c_bands:  1 eigenvalues not converged
     ethr =  3.44E-12,  avg # of iterations = 20.0

     total cpu time spent up to now is      716.9 secs

     total energy              =   -1473.41184081 Ry
     Harris-Foulkes estimate   =   -1473.41184081 Ry
     estimated scf accuracy    <          1.8E-09 Ry

     iteration # 13     ecut=    50.00 Ry     beta=0.70
     Davidson diagonalization with overlap
     ethr =  3.59E-13,  avg # of iterations = 20.0

     total cpu time spent up to now is      725.0 secs

     total energy              =   -1473.41184081 Ry
     Harris-Foulkes estimate   =   -1473.41184081 Ry
     estimated scf accuracy    <          2.2E-10 Ry

     iteration # 14     ecut=    50.00 Ry     beta=0.70
     Davidson diagonalization with overlap
     ethr =  1.00E-13,  avg # of iterations =  9.0

     total cpu time spent up to now is      728.0 secs

     total energy              =   -1473.41184081 Ry
     Harris-Foulkes estimate   =   -1473.41184081 Ry
     estimated scf accuracy    <          3.1E-11 Ry

     iteration # 15     ecut=    50.00 Ry     beta=0.70
     Davidson diagonalization with overlap
     ethr =  1.00E-13,  avg # of iterations =  4.0

     total cpu time spent up to now is      729.7 secs

     total energy              =   -1473.41184081 Ry
     Harris-Foulkes estimate   =   -1473.41184081 Ry
     estimated scf accuracy    <          3.0E-12 Ry

     iteration # 16     ecut=    50.00 Ry     beta=0.70
     Davidson diagonalization with overlap
     ethr =  1.00E-13,  avg # of iterations =  1.0

     total cpu time spent up to now is      731.0 secs

     total energy              =   -1473.41184081 Ry
     Harris-Foulkes estimate   =   -1473.41184081 Ry
     estimated scf accuracy    <          1.1E-12 Ry

     iteration # 17     ecut=    50.00 Ry     beta=0.70
     Davidson diagonalization with overlap
     ethr =  1.00E-13,  avg # of iterations =  1.0

     total cpu time spent up to now is      732.2 secs

     End of self-consistent calculation

          k = 0.0000 0.0000 0.0000 ( 28571 PWs)   bands (ev):

    -8.1923  -7.0296  -6.9701  -6.2606  -6.2596  -6.2596  -6.2574  -6.2574
    -6.2494  -5.9204  -5.8344  -5.6967  -5.6967  -5.6702  -5.6702  -4.4918
    -3.9575  -3.5061  -3.5061  -3.5047  -3.5047  -3.4440  -3.4440  -3.4427
    -3.4427  -3.4058  -3.3993  -2.8251  -2.4658  -2.1659  -2.1659  -2.1185
    -2.0002  -1.9758  -1.9758  -1.9467  -1.9467  -1.8978  -1.8978  -1.8891
    -1.8857  -1.8857  -1.8635  -1.8635  -1.8542  -1.8363  -1.8363  -1.8363
    -1.8266  -1.8212  -1.8212  -1.8118  -1.8118  -1.8012  -1.7892  -0.0811
     0.1247   0.1247   0.1946   0.4890   0.7849   0.7849   0.8712   0.8790
     0.8790   1.3285   1.5778   1.5778   1.5800   1.5981   1.5981   1.6758
     1.6758   1.6914   1.7221   1.7221   1.7809   2.4425   2.5955   2.5955
     2.6510   2.6903   2.6903   2.7894   2.7964   2.7964   2.8190   2.8248
     2.8248   2.8325   2.8571   2.8701   2.8701   2.8863   2.8863   2.8871
     2.8871   2.8974   2.9141   2.9141   3.0510   4.6554   4.6878   4.6878
     4.8064   4.8064   4.8868   4.9486   4.9802   4.9932   4.9932   5.0187
     5.0187   5.1656   5.1656   5.2084   5.2084   5.2714   5.2743   5.2817
     5.2944   5.2944   5.3499   5.3499   5.3890   5.8183   5.8183   5.9231
     5.9298   6.0096   6.0096   6.0213   6.0213   6.0355   6.0355   6.0719
     6.1339   6.5328   6.5328   6.6474   6.7856   6.7856   6.8133   6.8549
     6.9214   6.9214   6.9372   6.9372   6.9383   6.9427   6.9593   6.9593
     6.9610   6.9612   6.9635   6.9635   6.9730   6.9730   6.9821   7.0244
     7.0244   7.0297   7.0882   7.0901   7.1091   7.1091   7.1530   7.1530
     7.2335   7.3103   7.3103   7.3271   7.3271   7.4324   7.5485   8.5063
     8.5063   8.5080   8.5080   8.7527   8.7628   8.7628   8.7633   8.7889
     8.7889   8.7979   8.7979   8.8113   8.8122   8.8122   8.8522   8.8537
     8.8537   8.8837   8.8850   8.8850   8.8918   8.9004   8.9282   9.1491
     9.1886   9.1886   9.2895   9.2895   9.3685   9.4713   9.5241   9.5241
     9.5278   9.5278   9.5621   9.5621   9.5869   9.5869   9.6404   9.6608
     9.9176  10.4984  10.4984  10.6618  10.6618  10.7158  10.7216  10.7216
    10.7630  10.7630  10.7818  10.8008  10.8141  10.9142  10.9142  10.9331
    10.9331  10.9654  10.9654  10.9899  11.2036  11.8155  11.8155  11.9351
    11.9849  11.9849  12.0142  12.0142  12.0301  12.0301  12.0593  12.0671
    12.0671  12.0676  12.0676  12.0783  12.6398  13.7949  13.7949  13.9870
    14.8513  18.1643  18.3105  18.3105  18.3589  18.3589  18.4665  18.6420
    18.6612  18.6612  18.7241  18.7241  18.8613  19.4598  19.4827  19.4827
    19.7801  19.7985  19.8410  19.8410  19.9073  19.9365  19.9365  19.9463
    19.9463  19.9539  19.9637  20.0222  20.0222  20.0545  20.0545  20.0671
    20.0879  20.0879  20.0916  20.0916  20.1288  20.2864  20.2864  20.7819
    21.4772  21.6245  21.6245  21.6558

     highest occupied, lowest unoccupied level (ev):    14.8513   18.1643

!    total energy              =   -1473.41184081 Ry
     Harris-Foulkes estimate   =   -1473.41184081 Ry
     estimated scf accuracy    <          3.5E-13 Ry

     The total energy is the sum of the following terms:

     one-electron contribution =     522.13016153 Ry
     hartree contribution      =     128.74110238 Ry
     xc contribution           =    -461.86396761 Ry
     ewald contribution        =   -1662.41913711 Ry

     convergence has been achieved in  17 iterations

     Forces acting on atoms (cartesian axes, Ry/au):

     atom    1 type  2   force =     0.00025841   -0.00025843   -0.00025842
     atom    2 type  2   force =    -0.00027666    0.00027661    0.00027660
     atom    3 type  1   force =    -0.00017591    0.00017588    0.00020975
     atom    4 type  1   force =    -0.00011168    0.00011166   -0.00034186
     atom    5 type  1   force =    -0.00011678    0.00011679   -0.00002713
     atom    6 type  1   force =     0.00009490   -0.00009488    0.00002181
     atom    7 type  1   force =     0.00014920   -0.00014920    0.00036924
     atom    8 type  1   force =     0.00014569   -0.00014567   -0.00019564
     atom    9 type  1   force =    -0.00020970    0.00017591    0.00017592
     atom   10 type  1   force =     0.00034185    0.00011160    0.00011166
     atom   11 type  1   force =    -0.00004501   -0.00009296    0.00004502
     atom   12 type  1   force =     0.00003217   -0.00016130   -0.00003223
     atom   13 type  1   force =    -0.00001795   -0.00027673    0.00045889
     atom   14 type  1   force =     0.00003439    0.00000575   -0.00001918
     atom   15 type  1   force =    -0.00019398   -0.00006706    0.00011665
     atom   16 type  1   force =     0.00010680    0.00007185   -0.00019839
     atom   17 type  1   force =     0.00002711    0.00011681    0.00011676
     atom   18 type  1   force =    -0.00002176   -0.00009488   -0.00009487
     atom   19 type  1   force =    -0.00045891   -0.00027672    0.00001800
     atom   20 type  1   force =     0.00001919    0.00000573   -0.00003439
     atom   21 type  1   force =    -0.00018079   -0.00006058    0.00018079
     atom   22 type  1   force =     0.00018894    0.00006494   -0.00018894
     atom   23 type  1   force =    -0.00001137    0.00000559    0.00003737
     atom   24 type  1   force =     0.00043971    0.00027506   -0.00003074
     atom   25 type  1   force =    -0.00036930   -0.00014915   -0.00014918
     atom   26 type  1   force =     0.00019565   -0.00014571   -0.00014570
     atom   27 type  1   force =    -0.00011663   -0.00006705    0.00019396
     atom   28 type  1   force =     0.00019840    0.00007186   -0.00010681
     atom   29 type  1   force =    -0.00003737    0.00000559    0.00001134
     atom   30 type  1   force =     0.00003072    0.00027505   -0.00043967
     atom   31 type  1   force =    -0.00003019    0.00018803    0.00003021
     atom   32 type  1   force =     0.00002731    0.00012194   -0.00002728
     atom   33 type  1   force =    -0.00017590    0.00020972    0.00017592
     atom   34 type  1   force =    -0.00011159   -0.00034188    0.00011162
     atom   35 type  1   force =     0.00009297    0.00004502    0.00004501
     atom   36 type  1   force =     0.00016130   -0.00003218   -0.00003222
     atom   37 type  1   force =     0.00027673    0.00001794    0.00045892
     atom   38 type  1   force =    -0.00000576   -0.00003438   -0.00001920
     atom   39 type  1   force =     0.00006709    0.00019399    0.00011667
     atom   40 type  1   force =    -0.00007187   -0.00010681   -0.00019840
     atom   41 type  1   force =    -0.00004500    0.00004501   -0.00009298
     atom   42 type  1   force =     0.00003220   -0.00003222   -0.00016123
     atom   43 type  1   force =    -0.00028764    0.00028765    0.00028769
     atom   44 type  1   force =    -0.00029387    0.00029387    0.00029387
     atom   45 type  1   force =    -0.00046207    0.00046208    0.00053569
     atom   46 type  1   force =    -0.00021514    0.00021515    0.00012825
     atom   47 type  1   force =    -0.00022402    0.00022400    0.00015706
     atom   48 type  1   force =     0.00005981   -0.00005982   -0.00019145
     atom   49 type  1   force =    -0.00045891    0.00001797   -0.00027677
     atom   50 type  1   force =     0.00001922   -0.00003438    0.00000578
     atom   51 type  1   force =    -0.00053569    0.00046207    0.00046205
     atom   52 type  1   force =    -0.00012826    0.00021516    0.00021514
     atom   53 type  1   force =    -0.00034688    0.00039365    0.00034689
     atom   54 type  1   force =     0.00006342    0.00022934   -0.00006342
     atom   55 type  1   force =    -0.00008871    0.00026286   -0.00000931
     atom   56 type  1   force =     0.00010086    0.00000138   -0.00026754
     atom   57 type  1   force =    -0.00011665    0.00019398   -0.00006707
     atom   58 type  1   force =     0.00019842   -0.00010680    0.00007186
     atom   59 type  1   force =    -0.00015707    0.00022400    0.00022400
     atom   60 type  1   force =     0.00019145   -0.00005983   -0.00005984
     atom   61 type  1   force =     0.00000932    0.00026286    0.00008870
     atom   62 type  1   force =     0.00026755    0.00000140   -0.00010086
     atom   63 type  1   force =    -0.00005830    0.00018087    0.00005831
     atom   64 type  1   force =     0.00022702   -0.00014244   -0.00022705
     atom   65 type  1   force =    -0.00011678   -0.00002711    0.00011678
     atom   66 type  1   force =     0.00009486    0.00002181   -0.00009486
     atom   67 type  1   force =     0.00027673    0.00045891    0.00001800
     atom   68 type  1   force =    -0.00000574   -0.00001924   -0.00003439
     atom   69 type  1   force =     0.00006060    0.00018079    0.00018078
     atom   70 type  1   force =    -0.00006496   -0.00018892   -0.00018894
     atom   71 type  1   force =    -0.00000559    0.00001139    0.00003741
     atom   72 type  1   force =    -0.00027507   -0.00043972   -0.00003076
     atom   73 type  1   force =    -0.00001798    0.00045892   -0.00027678
     atom   74 type  1   force =     0.00003438   -0.00001923    0.00000576
     atom   75 type  1   force =    -0.00046207    0.00053570    0.00046205
     atom   76 type  1   force =    -0.00021515    0.00012829    0.00021513
     atom   77 type  1   force =    -0.00039366    0.00034685    0.00034690
     atom   78 type  1   force =    -0.00022935   -0.00006341   -0.00006343
     atom   79 type  1   force =    -0.00026284    0.00008871   -0.00000931
     atom   80 type  1   force =    -0.00000138   -0.00010089   -0.00026752
     atom   81 type  1   force =    -0.00018078    0.00018081   -0.00006063
     atom   82 type  1   force =     0.00018894   -0.00018893    0.00006499
     atom   83 type  1   force =    -0.00034687    0.00034687    0.00039366
     atom   84 type  1   force =     0.00006345   -0.00006345    0.00022938
     atom   85 type  1   force =    -0.00017782    0.00017779    0.00017778
     atom   86 type  1   force =     0.00019538   -0.00019542   -0.00019536
     atom   87 type  1   force =    -0.00004934    0.00004936   -0.00024198
     atom   88 type  1   force =     0.00036104   -0.00036106   -0.00040800
     atom   89 type  1   force =    -0.00003739    0.00001138    0.00000557
     atom   90 type  1   force =     0.00003072   -0.00043973    0.00027510
     atom   91 type  1   force =     0.00000929    0.00008871    0.00026285
     atom   92 type  1   force =     0.00026754   -0.00010086    0.00000138
     atom   93 type  1   force =     0.00024197    0.00004934    0.00004935
     atom   94 type  1   force =     0.00040801   -0.00036103   -0.00036106
     atom   95 type  1   force =     0.00022864   -0.00013985   -0.00022863
     atom   96 type  1   force =     0.00046737   -0.00054752   -0.00046738
     atom   97 type  1   force =     0.00014915    0.00036926   -0.00014917
     atom   98 type  1   force =     0.00014571   -0.00019562   -0.00014573
     atom   99 type  1   force =     0.00006706    0.00011663    0.00019397
     atom  100 type  1   force =    -0.00007186   -0.00019838   -0.00010683
     atom  101 type  1   force =    -0.00000559    0.00003738    0.00001136
     atom  102 type  1   force =    -0.00027507   -0.00003071   -0.00043968
     atom  103 type  1   force =    -0.00018799    0.00003018    0.00003020
     atom  104 type  1   force =    -0.00012195   -0.00002729   -0.00002727
     atom  105 type  1   force =    -0.00019398    0.00011665   -0.00006707
     atom  106 type  1   force =     0.00010683   -0.00019841    0.00007188
     atom  107 type  1   force =    -0.00022404    0.00015706    0.00022402
     atom  108 type  1   force =     0.00005984   -0.00019145   -0.00005985
     atom  109 type  1   force =    -0.00026285   -0.00000934    0.00008871
     atom  110 type  1   force =    -0.00000141   -0.00026754   -0.00010085
     atom  111 type  1   force =    -0.00018086    0.00005831    0.00005829
     atom  112 type  1   force =     0.00014248   -0.00022705   -0.00022704
     atom  113 type  1   force =    -0.00001137    0.00003738    0.00000556
     atom  114 type  1   force =     0.00043969   -0.00003074    0.00027511
     atom  115 type  1   force =    -0.00008872   -0.00000929    0.00026284
     atom  116 type  1   force =     0.00010088   -0.00026756    0.00000139
     atom  117 type  1   force =    -0.00004932   -0.00024193    0.00004930
     atom  118 type  1   force =     0.00036104   -0.00040801   -0.00036106
     atom  119 type  1   force =     0.00013982   -0.00022864   -0.00022865
     atom  120 type  1   force =     0.00054752   -0.00046734   -0.00046733
     atom  121 type  1   force =    -0.00003022    0.00003025    0.00018796
     atom  122 type  1   force =     0.00002731   -0.00002730    0.00012193
     atom  123 type  1   force =    -0.00005830    0.00005829    0.00018091
     atom  124 type  1   force =     0.00022702   -0.00022701   -0.00014250
     atom  125 type  1   force =     0.00022865   -0.00022865   -0.00013976
     atom  126 type  1   force =     0.00046736   -0.00046737   -0.00054752
     atom  127 type  1   force =     0.00029512   -0.00029514   -0.00029514
     atom  128 type  1   force =     0.00027145   -0.00027144   -0.00027147

     Total force =     0.004229     Total SCF correction =     0.000002


     Computing stress (Cartesian axis) and pressure

          total   stress  (Ry/bohr**3)                   (kbar)     P=   -3.30
  -0.00002241  -0.00000645  -0.00000645         -3.30     -0.95     -0.95
  -0.00000645  -0.00002241   0.00000645         -0.95     -3.30      0.95
  -0.00000645   0.00000645  -0.00002241         -0.95      0.95     -3.30


     Writing output data file n2.save
 
     init_run     :      1.41s CPU      2.33s WALL (       2 calls)
     electrons    :    686.86s CPU    707.02s WALL (      11 calls)
     update_pot   :      1.28s CPU      1.76s WALL (       9 calls)
     forces       :      3.11s CPU      3.46s WALL (      11 calls)
     stress       :     14.37s CPU     14.67s WALL (      11 calls)

     Called by init_run:
     wfcinit      :      0.97s CPU      1.32s WALL (       2 calls)
     potinit      :      0.12s CPU      0.14s WALL (       2 calls)

     Called by electrons:
     c_bands      :    662.87s CPU    681.88s WALL (     143 calls)
     sum_band     :     20.12s CPU     20.52s WALL (     143 calls)
     v_of_rho     :      1.43s CPU      1.47s WALL (     149 calls)
     mix_rho      :      1.96s CPU      2.01s WALL (     143 calls)

     Called by c_bands:
     init_us_2    :      0.68s CPU      0.73s WALL (     288 calls)
     cegterg      :    660.62s CPU    679.50s WALL (     144 calls)

     Called by sum_band:

     Called by *egterg:
     h_psi        :    152.67s CPU    156.19s WALL (    1873 calls)
     g_psi        :      0.12s CPU      0.13s WALL (    1727 calls)
     cdiaghg      :    454.96s CPU    467.75s WALL (    1856 calls)

     Called by h_psi:
     h_psi:pot    :    152.31s CPU    155.82s WALL (    1873 calls)
     h_psi:calbec :     20.65s CPU     21.44s WALL (    1873 calls)
     vloc_psi     :    115.22s CPU    117.40s WALL (    1873 calls)
     add_vuspsi   :     16.42s CPU     16.96s WALL (    1873 calls)

     General routines
     calbec       :     22.96s CPU     23.88s WALL (    1928 calls)
     fft          :      1.40s CPU      1.92s WALL (    1735 calls)
     ffts         :      1.27s CPU      1.29s WALL (    2195 calls)
     fftw         :    130.97s CPU    133.45s WALL (  296180 calls)
 
     Parallel routines
     fft_scatter  :     92.69s CPU     94.79s WALL (  300110 calls)
 
     PWSCF        : 11m50.00s CPU    12m15.66s WALL

 
   This run was terminated on:   7: 0:52  21Jan2021            

=------------------------------------------------------------------------------=
   JOB DONE.
=------------------------------------------------------------------------------=
