
     Program PWSCF v.6.1 (svn rev. 13369) starts on 13Jan2021 at 14:54:59 

     This program is part of the open-source Quantum ESPRESSO suite
     for quantum simulation of materials; please cite
         "P. Giannozzi et al., J. Phys.:Condens. Matter 21 395502 (2009);
          URL http://www.quantum-espresso.org", 
     in publications or presentations arising from this work. More details at
     http://www.quantum-espresso.org/quote

     Parallel version (MPI & OpenMP), running on      40 processor cores
     Number of MPI processes:                40
     Threads/MPI process:                     1
     R & G space division:  proc/nbgrp/npool/nimage =      40
     Waiting for input...
     Reading input from standard input

     Current dimensions of program PWSCF are:
     Max number of different atomic species (ntypx) = 10
     Max number of k-points (npk) =  40000
     Max angular momentum in pseudopotentials (lmaxx) =  3

     IMPORTANT: XC functional enforced from input :
     Exchange-correlation      = PZ ( 1  1  0  0 0 0)
     Any further DFT definition will be discarded
     Please, verify this is what you really want

               file C.pz-mt.fhi.UPF: wavefunction(s)  3d renormalized

     Subspace diagonalization in iterative solution of the eigenvalue problem:
     one sub-group per band group will be used
     scalapack distributed-memory algorithm (size of sub-group:  4*  4 procs)

 
     Parallelization info
     --------------------
     sticks:   dense  smooth     PW     G-vecs:    dense   smooth      PW
     Min           9       9      3                  115      115      20
     Max          10      10      4                  119      119      24
     Sum         367     367    121                 4645     4645     869
 


     bravais-lattice index     =            2
     lattice parameter (alat)  =       6.6493  a.u.
     unit-cell volume          =      73.4959 (a.u.)^3
     number of atoms/cell      =            2
     number of atomic types    =            1
     number of electrons       =         8.00
     number of Kohn-Sham states=            4
     kinetic-energy cutoff     =      60.0000  Ry
     charge density cutoff     =     240.0000  Ry
     convergence threshold     =      1.0E-20
     mixing beta               =       0.7000
     number of iterations used =            8  plain     mixing
     Exchange-correlation      = PZ ( 1  1  0  0 0 0)

     celldm(1)=   6.649277  celldm(2)=   0.000000  celldm(3)=   0.000000
     celldm(4)=   0.000000  celldm(5)=   0.000000  celldm(6)=   0.000000

     crystal axes: (cart. coord. in units of alat)
               a(1) = (  -0.500000   0.000000   0.500000 )  
               a(2) = (   0.000000   0.500000   0.500000 )  
               a(3) = (  -0.500000   0.500000   0.000000 )  

     reciprocal axes: (cart. coord. in units 2 pi/alat)
               b(1) = ( -1.000000 -1.000000  1.000000 )  
               b(2) = (  1.000000  1.000000  1.000000 )  
               b(3) = ( -1.000000  1.000000 -1.000000 )  


     PseudoPot. # 1 for  C read from file:
     ../C.pz-mt.fhi.UPF
     MD5 check sum: b7c38bc33a0cf75f44be89b84470f298
     Pseudo is Norm-conserving, Zval =  4.0
     Generated using FHI98PP, converted with fhi2upf.x v.5.0.2
     Using radial grid of  461 points,  2 beta functions with: 
                l(1) =   0
                l(2) =   1

     atomic species   valence    mass     pseudopotential
        C              4.00    12.01100      C( 1.00)

     48 Sym. Ops., with inversion, found (24 have fractional translation)



   Cartesian axes

     site n.     atom                  positions (alat units)
         1           C   tau(   1) = (   0.0000000   0.0000000   0.0000000  )
         2           C   tau(   2) = (  -0.2500000   0.2500000   0.2500000  )

     number of k points=     8
                       cart. coord. in units 2pi/alat
        k(    1) = (   0.0000000   0.0000000   0.0000000), wk =   0.0312500
        k(    2) = (  -0.2500000   0.2500000  -0.2500000), wk =   0.2500000
        k(    3) = (   0.5000000  -0.5000000   0.5000000), wk =   0.1250000
        k(    4) = (   0.0000000   0.5000000   0.0000000), wk =   0.1875000
        k(    5) = (   0.7500000  -0.2500000   0.7500000), wk =   0.7500000
        k(    6) = (   0.5000000   0.0000000   0.5000000), wk =   0.3750000
        k(    7) = (   0.0000000  -1.0000000   0.0000000), wk =   0.0937500
        k(    8) = (  -0.5000000  -1.0000000   0.0000000), wk =   0.1875000

     Dense  grid:     4645 G-vectors     FFT dimensions: (  24,  24,  24)

     Estimated max dynamical RAM per process >       0.16MB

     Estimated total allocated dynamical RAM >       6.38MB
     Message from routine sym_rho_init:
     some processors have no G-vectors for symmetrization
     Message from routine sym_rho_init:
     some processors have no G-vectors for symmetrization
     Message from routine sym_rho_init:
     some processors have no G-vectors for symmetrization
     Message from routine sym_rho_init:
     some processors have no G-vectors for symmetrization

     Initial potential from superposition of free atoms

     starting charge    7.99993, renormalised to    8.00000
     Starting wfc are   18 randomized atomic wfcs

     total cpu time spent up to now is        0.1 secs

     per-process dynamical memory:    12.6 Mb

     Self-consistent Calculation

     iteration #  1     ecut=    60.00 Ry     beta=0.70
     Davidson diagonalization with overlap
     ethr =  1.00E-02,  avg # of iterations =  2.0

     total cpu time spent up to now is        0.2 secs

     total energy              =     -22.86622951 Ry
     Harris-Foulkes estimate   =     -22.94101454 Ry
     estimated scf accuracy    <       0.14129444 Ry

     iteration #  2     ecut=    60.00 Ry     beta=0.70
     Davidson diagonalization with overlap
     ethr =  1.77E-03,  avg # of iterations =  2.0

     total cpu time spent up to now is        0.2 secs

     total energy              =     -22.87891192 Ry
     Harris-Foulkes estimate   =     -22.87952605 Ry
     estimated scf accuracy    <       0.00210561 Ry

     iteration #  3     ecut=    60.00 Ry     beta=0.70
     Davidson diagonalization with overlap
     ethr =  2.63E-05,  avg # of iterations =  1.9

     total cpu time spent up to now is        0.2 secs

     total energy              =     -22.87927394 Ry
     Harris-Foulkes estimate   =     -22.87929159 Ry
     estimated scf accuracy    <       0.00007688 Ry

     iteration #  4     ecut=    60.00 Ry     beta=0.70
     Davidson diagonalization with overlap
     ethr =  9.61E-07,  avg # of iterations =  2.6

     total cpu time spent up to now is        0.3 secs

     total energy              =     -22.87929635 Ry
     Harris-Foulkes estimate   =     -22.87929799 Ry
     estimated scf accuracy    <       0.00000305 Ry

     iteration #  5     ecut=    60.00 Ry     beta=0.70
     Davidson diagonalization with overlap
     ethr =  3.81E-08,  avg # of iterations =  2.4

     total cpu time spent up to now is        0.4 secs

     total energy              =     -22.87929722 Ry
     Harris-Foulkes estimate   =     -22.87929723 Ry
     estimated scf accuracy    <       0.00000002 Ry

     iteration #  6     ecut=    60.00 Ry     beta=0.70
     Davidson diagonalization with overlap
     ethr =  2.37E-10,  avg # of iterations =  3.2

     total cpu time spent up to now is        0.4 secs

     total energy              =     -22.87929724 Ry
     Harris-Foulkes estimate   =     -22.87929724 Ry
     estimated scf accuracy    <          1.5E-09 Ry

     iteration #  7     ecut=    60.00 Ry     beta=0.70
     Davidson diagonalization with overlap
     ethr =  1.83E-11,  avg # of iterations =  1.9

     total cpu time spent up to now is        0.5 secs

     total energy              =     -22.87929724 Ry
     Harris-Foulkes estimate   =     -22.87929724 Ry
     estimated scf accuracy    <          1.0E-11 Ry

     iteration #  8     ecut=    60.00 Ry     beta=0.70
     Davidson diagonalization with overlap
     ethr =  1.29E-13,  avg # of iterations =  3.0

     total cpu time spent up to now is        0.5 secs

     total energy              =     -22.87929724 Ry
     Harris-Foulkes estimate   =     -22.87929724 Ry
     estimated scf accuracy    <          3.4E-13 Ry

     iteration #  9     ecut=    60.00 Ry     beta=0.70
     Davidson diagonalization with overlap
     ethr =  1.00E-13,  avg # of iterations =  1.0

     total cpu time spent up to now is        0.6 secs

     total energy              =     -22.87929724 Ry
     Harris-Foulkes estimate   =     -22.87929724 Ry
     estimated scf accuracy    <          8.2E-15 Ry

     iteration # 10     ecut=    60.00 Ry     beta=0.70
     Davidson diagonalization with overlap
     ethr =  1.00E-13,  avg # of iterations =  1.0

     total cpu time spent up to now is        0.6 secs

     total energy              =     -22.87929724 Ry
     Harris-Foulkes estimate   =     -22.87929724 Ry
     estimated scf accuracy    <          4.8E-16 Ry

     iteration # 11     ecut=    60.00 Ry     beta=0.70
     Davidson diagonalization with overlap
     ethr =  1.00E-13,  avg # of iterations =  1.0

     total cpu time spent up to now is        0.6 secs

     total energy              =     -22.87929724 Ry
     Harris-Foulkes estimate   =     -22.87929724 Ry
     estimated scf accuracy    <          2.0E-16 Ry

     iteration # 12     ecut=    60.00 Ry     beta=0.70
     Davidson diagonalization with overlap
     ethr =  1.00E-13,  avg # of iterations =  1.0

     total cpu time spent up to now is        0.7 secs

     total energy              =     -22.87929724 Ry
     Harris-Foulkes estimate   =     -22.87929724 Ry
     estimated scf accuracy    <          6.5E-18 Ry

     iteration # 13     ecut=    60.00 Ry     beta=0.70
     Davidson diagonalization with overlap
     ethr =  1.00E-13,  avg # of iterations =  1.0

     total cpu time spent up to now is        0.7 secs

     total energy              =     -22.87929724 Ry
     Harris-Foulkes estimate   =     -22.87929724 Ry
     estimated scf accuracy    <          7.7E-18 Ry

     iteration # 14     ecut=    60.00 Ry     beta=0.70
     Davidson diagonalization with overlap
     ethr =  1.00E-13,  avg # of iterations =  1.0

     total cpu time spent up to now is        0.7 secs

     total energy              =     -22.87929724 Ry
     Harris-Foulkes estimate   =     -22.87929724 Ry
     estimated scf accuracy    <          1.6E-19 Ry

     iteration # 15     ecut=    60.00 Ry     beta=0.70
     Davidson diagonalization with overlap
     ethr =  1.00E-13,  avg # of iterations =  1.0

     total cpu time spent up to now is        0.7 secs

     total energy              =     -22.87929724 Ry
     Harris-Foulkes estimate   =     -22.87929724 Ry
     estimated scf accuracy    <          1.8E-20 Ry

     iteration # 16     ecut=    60.00 Ry     beta=0.70
     Davidson diagonalization with overlap
     ethr =  1.00E-13,  avg # of iterations =  1.0

     total cpu time spent up to now is        0.8 secs

     total energy              =     -22.87929724 Ry
     Harris-Foulkes estimate   =     -22.87929724 Ry
     estimated scf accuracy    <          2.4E-20 Ry

     iteration # 17     ecut=    60.00 Ry     beta=0.70
     Davidson diagonalization with overlap
     ethr =  1.00E-13,  avg # of iterations =  1.0

     total cpu time spent up to now is        0.8 secs

     End of self-consistent calculation

          k = 0.0000 0.0000 0.0000 (   561 PWs)   bands (ev):

    -8.0591  13.7696  13.7696  13.7696

          k =-0.2500 0.2500-0.2500 (   576 PWs)   bands (ev):

    -6.2881   7.0799  11.9662  11.9662

          k = 0.5000-0.5000 0.5000 (   580 PWs)   bands (ev):

    -1.9613   0.0091  10.8843  10.8843

          k = 0.0000 0.5000 0.0000 (   576 PWs)   bands (ev):

    -5.7024   9.3536   9.5000   9.5000

          k = 0.7500-0.2500 0.7500 (   579 PWs)   bands (ev):

    -1.8164   2.8298   6.8972   8.7262

          k = 0.5000 0.0000 0.5000 (   574 PWs)   bands (ev):

    -3.4379   5.0257   5.9303  10.6596

          k = 0.0000-1.0000 0.0000 (   588 PWs)   bands (ev):

     0.9286   0.9286   7.2556   7.2556

          k =-0.5000-1.0000 0.0000 (   560 PWs)   bands (ev):

     1.8335   1.8335   5.0941   5.0941

     highest occupied level (ev):    13.7696

!    total energy              =     -22.87929724 Ry
     Harris-Foulkes estimate   =     -22.87929724 Ry
     estimated scf accuracy    <          1.2E-21 Ry

     The total energy is the sum of the following terms:

     one-electron contribution =       8.28877693 Ry
     hartree contribution      =       1.89842875 Ry
     xc contribution           =      -7.14225158 Ry
     ewald contribution        =     -25.92425134 Ry

     convergence has been achieved in  17 iterations

     Writing output data file c.save
 
     init_run     :      0.05s CPU      0.06s WALL (       1 calls)
     electrons    :      0.68s CPU      0.70s WALL (       1 calls)

     Called by init_run:
     wfcinit      :      0.03s CPU      0.03s WALL (       1 calls)
     potinit      :      0.00s CPU      0.00s WALL (       1 calls)

     Called by electrons:
     c_bands      :      0.65s CPU      0.66s WALL (      17 calls)
     sum_band     :      0.02s CPU      0.02s WALL (      17 calls)
     v_of_rho     :      0.00s CPU      0.00s WALL (      18 calls)
     mix_rho      :      0.01s CPU      0.01s WALL (      17 calls)

     Called by c_bands:
     init_us_2    :      0.00s CPU      0.00s WALL (     280 calls)
     cegterg      :      0.64s CPU      0.65s WALL (     136 calls)

     Called by sum_band:

     Called by *egterg:
     h_psi        :      0.09s CPU      0.09s WALL (     368 calls)
     g_psi        :      0.00s CPU      0.00s WALL (     224 calls)
     cdiaghg      :      0.34s CPU      0.35s WALL (     360 calls)

     Called by h_psi:
     h_psi:pot    :      0.09s CPU      0.09s WALL (     368 calls)
     h_psi:calbec :      0.01s CPU      0.01s WALL (     368 calls)
     vloc_psi     :      0.08s CPU      0.08s WALL (     368 calls)
     add_vuspsi   :      0.00s CPU      0.00s WALL (     368 calls)

     General routines
     calbec       :      0.01s CPU      0.01s WALL (     368 calls)
     fft          :      0.00s CPU      0.01s WALL (      71 calls)
     fftw         :      0.09s CPU      0.09s WALL (    3440 calls)
 
     Parallel routines
     fft_scatter  :      0.08s CPU      0.08s WALL (    3511 calls)
 
     PWSCF        :     0.80s CPU         0.86s WALL

 
   This run was terminated on:  14:55: 0  13Jan2021            

=------------------------------------------------------------------------------=
   JOB DONE.
=------------------------------------------------------------------------------=
