
     Program PWSCF v.6.1 (svn rev. 13369) starts on 28Dec2020 at 21:54:27 

     This program is part of the open-source Quantum ESPRESSO suite
     for quantum simulation of materials; please cite
         "P. Giannozzi et al., J. Phys.:Condens. Matter 21 395502 (2009);
          URL http://www.quantum-espresso.org", 
     in publications or presentations arising from this work. More details at
     http://www.quantum-espresso.org/quote

     Parallel version (MPI & OpenMP), running on      40 processor cores
     Number of MPI processes:                40
     Threads/MPI process:                     1
     R & G space division:  proc/nbgrp/npool/nimage =      40
     Waiting for input...
     Reading input from standard input

     Current dimensions of program PWSCF are:
     Max number of different atomic species (ntypx) = 10
     Max number of k-points (npk) =  40000
     Max angular momentum in pseudopotentials (lmaxx) =  3

     IMPORTANT: XC functional enforced from input :
     Exchange-correlation      = PZ ( 1  1  0  0 0 0)
     Any further DFT definition will be discarded
     Please, verify this is what you really want

               file C.pz-mt.fhi.UPF: wavefunction(s)  3d renormalized

     Subspace diagonalization in iterative solution of the eigenvalue problem:
     one sub-group per band group will be used
     scalapack distributed-memory algorithm (size of sub-group:  4*  4 procs)

 
     Parallelization info
     --------------------
     sticks:   dense  smooth     PW     G-vecs:    dense   smooth      PW
     Min           9       9      3                  116      116      23
     Max          10      10      4                  120      120      27
     Sum         367     367    121                 4693     4693     941
 


     bravais-lattice index     =            2
     lattice parameter (alat)  =       6.7034  a.u.
     unit-cell volume          =      75.3061 (a.u.)^3
     number of atoms/cell      =            2
     number of atomic types    =            1
     number of electrons       =         8.00
     number of Kohn-Sham states=            8
     kinetic-energy cutoff     =      60.0000  Ry
     charge density cutoff     =     240.0000  Ry
     convergence threshold     =      1.0E-15
     mixing beta               =       0.7000
     number of iterations used =            8  local-TF  mixing
     Exchange-correlation      = PZ ( 1  1  0  0 0 0)
     nstep                     =           50


     celldm(1)=   6.703426  celldm(2)=   0.000000  celldm(3)=   0.000000
     celldm(4)=   0.000000  celldm(5)=   0.000000  celldm(6)=   0.000000

     crystal axes: (cart. coord. in units of alat)
               a(1) = (  -0.500000   0.000000   0.500000 )  
               a(2) = (   0.000000   0.500000   0.500000 )  
               a(3) = (  -0.500000   0.500000   0.000000 )  

     reciprocal axes: (cart. coord. in units 2 pi/alat)
               b(1) = ( -1.000000 -1.000000  1.000000 )  
               b(2) = (  1.000000  1.000000  1.000000 )  
               b(3) = ( -1.000000  1.000000 -1.000000 )  


     PseudoPot. # 1 for  C read from file:
     ../C.pz-mt.fhi.UPF
     MD5 check sum: b7c38bc33a0cf75f44be89b84470f298
     Pseudo is Norm-conserving, Zval =  4.0
     Generated using FHI98PP, converted with fhi2upf.x v.5.0.2
     Using radial grid of  461 points,  2 beta functions with: 
                l(1) =   0
                l(2) =   1

     atomic species   valence    mass     pseudopotential
        C              4.00    12.01100      C( 1.00)

     48 Sym. Ops., with inversion, found (24 have fractional translation)



   Cartesian axes

     site n.     atom                  positions (alat units)
         1           C   tau(   1) = (   0.0000000   0.0000000   0.0000000  )
         2           C   tau(   2) = (  -0.2500000   0.2500000   0.2500000  )

     number of k points=    72
                       cart. coord. in units 2pi/alat
        k(    1) = (   0.0000000   0.0000000   0.0000000), wk =   0.0011574
        k(    2) = (  -0.0833333   0.0833333  -0.0833333), wk =   0.0092593
        k(    3) = (  -0.1666667   0.1666667  -0.1666667), wk =   0.0092593
        k(    4) = (  -0.2500000   0.2500000  -0.2500000), wk =   0.0092593
        k(    5) = (  -0.3333333   0.3333333  -0.3333333), wk =   0.0092593
        k(    6) = (  -0.4166667   0.4166667  -0.4166667), wk =   0.0092593
        k(    7) = (   0.5000000  -0.5000000   0.5000000), wk =   0.0046296
        k(    8) = (   0.0000000   0.1666667   0.0000000), wk =   0.0069444
        k(    9) = (  -0.0833333   0.2500000  -0.0833333), wk =   0.0277778
        k(   10) = (  -0.1666667   0.3333333  -0.1666667), wk =   0.0277778
        k(   11) = (  -0.2500000   0.4166667  -0.2500000), wk =   0.0277778
        k(   12) = (  -0.3333333   0.5000000  -0.3333333), wk =   0.0277778
        k(   13) = (   0.5833333  -0.4166667   0.5833333), wk =   0.0277778
        k(   14) = (   0.5000000  -0.3333333   0.5000000), wk =   0.0277778
        k(   15) = (   0.4166667  -0.2500000   0.4166667), wk =   0.0277778
        k(   16) = (   0.3333333  -0.1666667   0.3333333), wk =   0.0277778
        k(   17) = (   0.2500000  -0.0833333   0.2500000), wk =   0.0277778
        k(   18) = (   0.1666667  -0.0000000   0.1666667), wk =   0.0138889
        k(   19) = (   0.0000000   0.3333333   0.0000000), wk =   0.0069444
        k(   20) = (  -0.0833333   0.4166667  -0.0833333), wk =   0.0277778
        k(   21) = (  -0.1666667   0.5000000  -0.1666667), wk =   0.0277778
        k(   22) = (  -0.2500000   0.5833333  -0.2500000), wk =   0.0277778
        k(   23) = (   0.6666667  -0.3333333   0.6666667), wk =   0.0277778
        k(   24) = (   0.5833333  -0.2500000   0.5833333), wk =   0.0277778
        k(   25) = (   0.5000000  -0.1666667   0.5000000), wk =   0.0277778
        k(   26) = (   0.4166667  -0.0833333   0.4166667), wk =   0.0277778
        k(   27) = (   0.3333333   0.0000000   0.3333333), wk =   0.0138889
        k(   28) = (   0.0000000   0.5000000   0.0000000), wk =   0.0069444
        k(   29) = (  -0.0833333   0.5833333  -0.0833333), wk =   0.0277778
        k(   30) = (  -0.1666667   0.6666667  -0.1666667), wk =   0.0277778
        k(   31) = (   0.7500000  -0.2500000   0.7500000), wk =   0.0277778
        k(   32) = (   0.6666667  -0.1666667   0.6666667), wk =   0.0277778
        k(   33) = (   0.5833333  -0.0833333   0.5833333), wk =   0.0277778
        k(   34) = (   0.5000000   0.0000000   0.5000000), wk =   0.0138889
        k(   35) = (   0.0000000   0.6666667   0.0000000), wk =   0.0069444
        k(   36) = (  -0.0833333   0.7500000  -0.0833333), wk =   0.0277778
        k(   37) = (   0.8333333  -0.1666667   0.8333333), wk =   0.0277778
        k(   38) = (   0.7500000  -0.0833333   0.7500000), wk =   0.0277778
        k(   39) = (   0.6666667  -0.0000000   0.6666667), wk =   0.0138889
        k(   40) = (   0.0000000   0.8333333   0.0000000), wk =   0.0069444
        k(   41) = (   0.9166667  -0.0833333   0.9166667), wk =   0.0277778
        k(   42) = (   0.8333333   0.0000000   0.8333333), wk =   0.0138889
        k(   43) = (   0.0000000  -1.0000000   0.0000000), wk =   0.0034722
        k(   44) = (  -0.1666667   0.3333333   0.0000000), wk =   0.0277778
        k(   45) = (  -0.2500000   0.4166667  -0.0833333), wk =   0.0555556
        k(   46) = (  -0.3333333   0.5000000  -0.1666667), wk =   0.0555556
        k(   47) = (   0.5833333  -0.4166667   0.7500000), wk =   0.0555556
        k(   48) = (   0.5000000  -0.3333333   0.6666667), wk =   0.0277778
        k(   49) = (  -0.1666667   0.5000000   0.0000000), wk =   0.0277778
        k(   50) = (  -0.2500000   0.5833333  -0.0833333), wk =   0.0555556
        k(   51) = (   0.6666667  -0.3333333   0.8333333), wk =   0.0555556
        k(   52) = (   0.5833333  -0.2500000   0.7500000), wk =   0.0555556
        k(   53) = (   0.5000000  -0.1666667   0.6666667), wk =   0.0555556
        k(   54) = (   0.4166667  -0.0833333   0.5833333), wk =   0.0555556
        k(   55) = (   0.3333333   0.0000000   0.5000000), wk =   0.0277778
        k(   56) = (  -0.1666667   0.6666667  -0.0000000), wk =   0.0277778
        k(   57) = (   0.7500000  -0.2500000   0.9166667), wk =   0.0555556
        k(   58) = (   0.6666667  -0.1666667   0.8333333), wk =   0.0555556
        k(   59) = (   0.5833333  -0.0833333   0.7500000), wk =   0.0555556
        k(   60) = (   0.5000000   0.0000000   0.6666667), wk =   0.0277778
        k(   61) = (   0.8333333  -0.1666667   1.0000000), wk =   0.0277778
        k(   62) = (   0.7500000  -0.0833333   0.9166667), wk =   0.0555556
        k(   63) = (   0.6666667   0.0000000   0.8333333), wk =   0.0277778
        k(   64) = (  -0.1666667  -1.0000000  -0.0000000), wk =   0.0138889
        k(   65) = (   0.6666667  -0.3333333   1.0000000), wk =   0.0277778
        k(   66) = (   0.5833333  -0.2500000   0.9166667), wk =   0.0555556
        k(   67) = (   0.5000000  -0.1666667   0.8333333), wk =   0.0277778
        k(   68) = (   0.6666667  -0.1666667   1.0000000), wk =   0.0277778
        k(   69) = (   0.5833333  -0.0833333   0.9166667), wk =   0.0555556
        k(   70) = (   0.5000000   0.0000000   0.8333333), wk =   0.0277778
        k(   71) = (  -0.3333333  -1.0000000   0.0000000), wk =   0.0138889
        k(   72) = (  -0.5000000  -1.0000000   0.0000000), wk =   0.0069444

     Dense  grid:     4693 G-vectors     FFT dimensions: (  24,  24,  24)

     Estimated max dynamical RAM per process >       0.27MB

     Estimated total allocated dynamical RAM >      10.62MB
     Message from routine sym_rho_init:
     some processors have no G-vectors for symmetrization

     Initial potential from superposition of free atoms

     starting charge    7.99993, renormalised to    8.00000
     Starting wfc are   18 randomized atomic wfcs

     total cpu time spent up to now is        1.4 secs

     per-process dynamical memory:    18.2 Mb

     Self-consistent Calculation

     iteration #  1     ecut=    60.00 Ry     beta=0.70
     Davidson diagonalization with overlap
     ethr =  1.00E-02,  avg # of iterations =  2.9

     total cpu time spent up to now is        2.3 secs

     total energy              =     -22.89512724 Ry
     Harris-Foulkes estimate   =     -22.94486120 Ry
     estimated scf accuracy    <       0.12931095 Ry

     iteration #  2     ecut=    60.00 Ry     beta=0.70
     Davidson diagonalization with overlap
     ethr =  1.62E-03,  avg # of iterations =  1.3

     total cpu time spent up to now is        2.8 secs

     total energy              =     -22.88511069 Ry
     Harris-Foulkes estimate   =     -22.89944914 Ry
     estimated scf accuracy    <       0.02658206 Ry

     iteration #  3     ecut=    60.00 Ry     beta=0.70
     Davidson diagonalization with overlap
     ethr =  3.32E-04,  avg # of iterations =  2.1

     total cpu time spent up to now is        3.5 secs

     total energy              =     -22.88830665 Ry
     Harris-Foulkes estimate   =     -22.88826258 Ry
     estimated scf accuracy    <       0.00012403 Ry

     iteration #  4     ecut=    60.00 Ry     beta=0.70
     Davidson diagonalization with overlap
     ethr =  1.55E-06,  avg # of iterations =  2.2

     total cpu time spent up to now is        4.3 secs

     total energy              =     -22.88833453 Ry
     Harris-Foulkes estimate   =     -22.88833846 Ry
     estimated scf accuracy    <       0.00001029 Ry

     iteration #  5     ecut=    60.00 Ry     beta=0.70
     Davidson diagonalization with overlap
     ethr =  1.29E-07,  avg # of iterations =  2.0

     total cpu time spent up to now is        5.0 secs

     total energy              =     -22.88833544 Ry
     Harris-Foulkes estimate   =     -22.88833557 Ry
     estimated scf accuracy    <       0.00000026 Ry

     iteration #  6     ecut=    60.00 Ry     beta=0.70
     Davidson diagonalization with overlap
     ethr =  3.22E-09,  avg # of iterations =  2.1

     total cpu time spent up to now is        5.7 secs

     total energy              =     -22.88833547 Ry
     Harris-Foulkes estimate   =     -22.88833547 Ry
     estimated scf accuracy    <          8.2E-10 Ry

     iteration #  7     ecut=    60.00 Ry     beta=0.70
     Davidson diagonalization with overlap
     ethr =  1.03E-11,  avg # of iterations =  3.1

     total cpu time spent up to now is        6.6 secs

     total energy              =     -22.88833547 Ry
     Harris-Foulkes estimate   =     -22.88833547 Ry
     estimated scf accuracy    <          3.8E-10 Ry

     iteration #  8     ecut=    60.00 Ry     beta=0.70
     Davidson diagonalization with overlap
     ethr =  4.70E-12,  avg # of iterations =  2.1

     total cpu time spent up to now is        7.3 secs

     total energy              =     -22.88833547 Ry
     Harris-Foulkes estimate   =     -22.88833547 Ry
     estimated scf accuracy    <          3.9E-13 Ry

     iteration #  9     ecut=    60.00 Ry     beta=0.70
     Davidson diagonalization with overlap
     ethr =  1.00E-13,  avg # of iterations =  2.0

     total cpu time spent up to now is        8.0 secs

     total energy              =     -22.88833547 Ry
     Harris-Foulkes estimate   =     -22.88833547 Ry
     estimated scf accuracy    <          3.7E-13 Ry

     iteration # 10     ecut=    60.00 Ry     beta=0.70
     Davidson diagonalization with overlap
     ethr =  1.00E-13,  avg # of iterations =  1.0

     total cpu time spent up to now is        8.5 secs

     total energy              =     -22.88833547 Ry
     Harris-Foulkes estimate   =     -22.88833547 Ry
     estimated scf accuracy    <          1.1E-14 Ry

     iteration # 11     ecut=    60.00 Ry     beta=0.70
     Davidson diagonalization with overlap
     ethr =  1.00E-13,  avg # of iterations =  1.0

     total cpu time spent up to now is        8.9 secs

     End of self-consistent calculation

          k = 0.0000 0.0000 0.0000 (   609 PWs)   bands (ev):

    -8.1894  13.2968  13.2968  13.2968  18.9021  18.9021  18.9021  27.0721

          k =-0.0833 0.0833-0.0833 (   582 PWs)   bands (ev):

    -7.9942  12.0796  12.9716  12.9716  19.3280  19.3280  19.6354  27.2025

          k =-0.1667 0.1667-0.1667 (   582 PWs)   bands (ev):

    -7.4115   9.5614  12.2655  12.2655  20.2521  20.2521  20.7922  27.5660

          k =-0.2500 0.2500-0.2500 (   589 PWs)   bands (ev):

    -6.4491   6.7301  11.5380  11.5380  21.1111  21.1111  21.6443  28.0780

          k =-0.3333 0.3333-0.3333 (   601 PWs)   bands (ev):

    -5.1265   3.9420  10.9609  10.9609  21.5970  21.5970  22.1604  28.5506

          k =-0.4167 0.4167-0.4167 (   592 PWs)   bands (ev):

    -3.5082   1.4033  10.5998  10.5998  21.7533  21.7533  22.4330  28.8145

          k = 0.5000-0.5000 0.5000 (   580 PWs)   bands (ev):

    -2.2409  -0.1765  10.4777  10.4777  21.7750  21.7750  22.5186  28.8831

          k = 0.0000 0.1667 0.0000 (   585 PWs)   bands (ev):

    -7.9293  12.3764  12.3764  12.7113  18.7137  20.0407  20.0407  27.1432

          k =-0.0833 0.2500-0.0833 (   582 PWs)   bands (ev):

    -7.4759  10.4193  11.5669  12.3703  19.0147  21.1186  21.1626  27.1237

          k =-0.1667 0.3333-0.1667 (   583 PWs)   bands (ev):

    -6.6401   7.7379  10.8411  11.7022  19.8737  22.0671  22.1014  27.1930

          k =-0.2500 0.4167-0.2500 (   594 PWs)   bands (ev):

    -5.4367   4.9626  10.3324  10.9493  20.6542  22.5689  22.6877  27.5731

          k =-0.3333 0.5000-0.3333 (   596 PWs)   bands (ev):

    -3.9067   2.3450  10.0904  10.3016  21.1102  22.6163  23.0009  28.2647

          k = 0.5833-0.4167 0.5833 (   591 PWs)   bands (ev):

    -2.3102   0.2391   9.8469  10.1245  21.3997  22.4146  23.1183  28.8151

          k = 0.5000-0.3333 0.5000 (   592 PWs)   bands (ev):

    -2.7929   0.8259   9.6321  10.4216  21.6895  22.1206  23.0665  28.8491

          k = 0.4167-0.2500 0.4167 (   592 PWs)   bands (ev):

    -4.4480   3.1924   9.6838  10.9495  21.7208  21.9479  22.8244  28.3877

          k = 0.3333-0.1667 0.3333 (   591 PWs)   bands (ev):

    -5.8774   5.8885  10.0118  11.6503  21.0827  21.9552  22.3048  27.8100

          k = 0.2500-0.0833 0.2500 (   580 PWs)   bands (ev):

    -6.9606   8.6660  10.6057  12.4072  20.1979  21.3541  21.5473  27.4700

          k = 0.1667-0.0000 0.1667 (   578 PWs)   bands (ev):

    -7.6698  11.0802  11.5393  12.9704  19.4241  20.2439  20.6006  27.3092

          k = 0.0000 0.3333 0.0000 (   584 PWs)   bands (ev):

    -7.1530  10.6991  10.6991  11.1434  18.2652  22.3550  22.3550  26.2186

          k =-0.0833 0.4167-0.0833 (   582 PWs)   bands (ev):

    -6.4471   8.6682   9.9416  10.6697  18.5315  23.4791  23.4980  25.3394

          k =-0.1667 0.5000-0.1667 (   591 PWs)   bands (ev):

    -5.3702   6.1115   9.4264   9.9047  19.3593  24.1918  24.2112  25.1376

          k =-0.2500 0.5833-0.2500 (   589 PWs)   bands (ev):

    -3.9517   3.5457   9.0524   9.2071  20.0193  24.3257  24.5986  26.0078

          k = 0.6667-0.3333 0.6667 (   588 PWs)   bands (ev):

    -2.3178   1.2593   8.3265   9.2966  20.4366  24.0538  24.7538  27.5806

          k = 0.5833-0.2500 0.5833 (   590 PWs)   bands (ev):

    -1.8552   0.7106   7.8322   9.6796  20.8770  23.5623  24.7342  28.7331

          k = 0.5000-0.1667 0.5000 (   589 PWs)   bands (ev):

    -3.4231   2.7707   7.6258  10.3134  21.4191  22.8960  24.5167  28.2791

          k = 0.4167-0.0833 0.4167 (   593 PWs)   bands (ev):

    -4.9365   5.2989   7.7481  11.1132  21.9112  21.9962  23.9012  27.3744

          k = 0.3333 0.0000 0.3333 (   594 PWs)   bands (ev):

    -6.1304   7.6612   8.4559  11.9130  20.9512  22.0291  22.7116  27.1785

          k = 0.0000 0.5000 0.0000 (   592 PWs)   bands (ev):

    -5.8728   8.9119   9.1348   9.1348  17.7947  23.6259  24.9254  24.9254

          k =-0.0833 0.5833-0.0833 (   593 PWs)   bands (ev):

    -4.9266   6.9578   8.5584   8.5691  18.1237  22.6957  25.9495  25.9656

          k =-0.1667 0.6667-0.1667 (   595 PWs)   bands (ev):

    -3.6321   4.7373   7.5526   8.3091  18.9036  23.0284  26.3429  26.5345

          k = 0.7500-0.2500 0.7500 (   598 PWs)   bands (ev):

    -2.0647   2.5440   6.5573   8.3753  19.4186  24.7648  26.1518  26.7705

          k = 0.6667-0.1667 0.6667 (   589 PWs)   bands (ev):

    -0.8978   1.1850   5.8006   8.7581  19.8893  25.5451  26.7588  27.1886

          k = 0.5833-0.0833 0.5833 (   591 PWs)   bands (ev):

    -2.0992   2.6748   5.3817   9.4164  20.5279  24.6017  26.6442  28.2614

          k = 0.5000 0.0000 0.5000 (   590 PWs)   bands (ev):

    -3.6516   4.6822   5.6335  10.2612  21.2888  23.3438  25.7319  27.3699

          k = 0.0000 0.6667 0.0000 (   576 PWs)   bands (ev):

    -4.1127   6.2635   7.9350   7.9350  17.5128  21.0760  27.3883  27.3883

          k =-0.0833 0.7500-0.0833 (   595 PWs)   bands (ev):

    -2.9489   4.7546   7.0204   7.6038  17.9619  20.5663  28.1654  28.2408

          k = 0.8333-0.1667 0.8333 (   594 PWs)   bands (ev):

    -1.4870   3.2140   5.5608   7.6057  18.6108  21.6916  28.1749  28.5979

          k = 0.7500-0.0833 0.7500 (   591 PWs)   bands (ev):

    -0.0418   1.8833   4.2794   7.9387  19.0613  24.1638  27.5072  28.6519

          k = 0.6667-0.0000 0.6667 (   598 PWs)   bands (ev):

    -0.6149   2.4590   3.8039   8.5690  19.6865  26.2656  26.9177  28.4227

          k = 0.0000 0.8333 0.0000 (   600 PWs)   bands (ev):

    -1.9177   3.4274   7.1900   7.1900  17.5732  19.2317  29.3504  29.3504

          k = 0.9167-0.0833 0.9167 (   603 PWs)   bands (ev):

    -0.5779   2.0706   6.3760   7.1088  18.1200  19.2421  29.6284  29.7731

          k = 0.8333 0.0000 0.8333 (   598 PWs)   bands (ev):

     0.7762   1.0964   4.9284   7.3665  18.5135  21.2421  28.9692  29.5894

          k = 0.0000-1.0000 0.0000 (   588 PWs)   bands (ev):

     0.6381   0.6381   6.9381   6.9381  18.1042  18.1042  30.1544  30.1544

          k =-0.1667 0.3333 0.0000 (   585 PWs)   bands (ev):

    -6.8962   9.3368   9.9477  11.9653  19.2567  22.1482  22.3087  26.6725

          k =-0.2500 0.4167-0.0833 (   592 PWs)   bands (ev):

    -5.9395   6.9509   9.1077  11.2952  20.1241  22.6661  23.4390  26.4336

          k =-0.3333 0.5000-0.1667 (   592 PWs)   bands (ev):

    -4.6268   4.3017   8.7224  10.5091  20.9418  22.6969  24.1648  26.9724

          k = 0.5833-0.4167 0.7500 (   591 PWs)   bands (ev):

    -3.0269   1.8375   8.5998   9.8638  21.3636  22.5328  24.5046  28.0835

          k = 0.5000-0.3333 0.6667 (   592 PWs)   bands (ev):

    -1.7885   0.3024   8.6074   9.5907  21.4758  22.4463  24.6020  28.7369

          k =-0.1667 0.5000 0.0000 (   592 PWs)   bands (ev):

    -5.6209   7.6234   8.4371  10.0711  18.8319  24.0833  24.4488  24.9174

          k =-0.2500 0.5833-0.0833 (   594 PWs)   bands (ev):

    -4.4341   5.4691   7.7041   9.3161  19.7458  23.8698  24.7463  26.0076

          k = 0.6667-0.3333 0.8333 (   590 PWs)   bands (ev):

    -2.9332   3.0961   7.3324   8.6764  20.4285  23.9801  25.5787  26.6336

          k = 0.5833-0.2500 0.7500 (   588 PWs)   bands (ev):

    -1.3930   1.1339   6.9333   8.5728  20.8474  23.7491  26.4970  27.5854

          k = 0.5000-0.1667 0.6667 (   588 PWs)   bands (ev):

    -1.8638   1.7104   6.5868   8.9908  21.3254  23.2543  26.3802  28.1615

          k = 0.4167-0.0833 0.5833 (   592 PWs)   bands (ev):

    -3.4703   3.9318   6.4961   9.7258  21.8904  22.4665  25.9521  26.8931

          k = 0.3333 0.0000 0.5000 (   586 PWs)   bands (ev):

    -4.8719   6.1024   7.0154  10.5871  21.1694  22.5643  24.9782  26.1031

          k =-0.1667 0.6667-0.0000 (   591 PWs)   bands (ev):

    -3.8709   5.8035   7.2809   8.0776  18.5618  21.9051  26.4120  27.4197

          k = 0.7500-0.2500 0.9167 (   592 PWs)   bands (ev):

    -2.4892   4.1039   6.2791   7.5345  19.4851  22.3860  26.4036  28.2341

          k = 0.6667-0.1667 0.8333 (   592 PWs)   bands (ev):

    -0.9221   2.2828   5.3098   7.5662  20.0157  24.3367  26.1176  28.2955

          k = 0.5833-0.0833 0.7500 (   590 PWs)   bands (ev):

    -0.5429   1.9305   4.6223   8.0358  20.5290  25.2202  27.0220  27.7380

          k = 0.5000 0.0000 0.6667 (   594 PWs)   bands (ev):

    -2.0220   3.5010   4.6279   8.8073  21.2249  23.9954  26.9748  27.7387

          k = 0.8333-0.1667 1.0000 (   595 PWs)   bands (ev):

    -1.6968   3.4434   6.5850   6.8418  18.6113  20.1673  28.4072  29.2745

          k = 0.7500-0.0833 0.9167 (   592 PWs)   bands (ev):

    -0.2020   2.2088   5.1781   6.8180  19.3985  21.4448  28.1815  29.2170

          k = 0.6667 0.0000 0.8333 (   597 PWs)   bands (ev):

     0.6125   1.7134   3.9495   7.2700  19.8609  24.1201  27.2646  28.4287

          k =-0.1667-1.0000-0.0000 (   592 PWs)   bands (ev):

     0.8066   0.8066   6.4114   6.4114  19.1063  19.1063  29.6409  29.6409

          k = 0.6667-0.3333 1.0000 (   593 PWs)   bands (ev):

    -3.1573   4.7181   5.9275   8.4535  21.0487  23.2199  24.9523  27.5269

          k = 0.5833-0.2500 0.9167 (   586 PWs)   bands (ev):

    -1.6193   2.9217   5.4825   7.6418  21.9687  23.2524  25.6764  28.1726

          k = 0.5000-0.1667 0.8333 (   584 PWs)   bands (ev):

    -0.4592   1.5724   5.4759   7.2971  22.0461  23.4566  27.1773  27.3831

          k = 0.6667-0.1667 1.0000 (   596 PWs)   bands (ev):

    -1.0637   3.2476   5.3334   6.4139  21.1264  22.3733  26.1425  28.8342

          k = 0.5833-0.0833 0.9167 (   596 PWs)   bands (ev):

     0.3594   2.1158   4.5282   6.1212  21.9129  24.0821  25.8772  27.5789

          k = 0.5000 0.0000 0.8333 (   592 PWs)   bands (ev):

    -0.1514   2.5487   4.2285   6.6722  22.3471  24.1895  26.1045  27.2180

          k =-0.3333-1.0000 0.0000 (   600 PWs)   bands (ev):

     1.2218   1.2218   5.3868   5.3868  21.5477  21.5477  27.8974  27.8974

          k =-0.5000-1.0000 0.0000 (   604 PWs)   bands (ev):

     1.4970   1.4970   4.8455   4.8455  23.8537  23.8537  25.8088  25.8088

     highest occupied, lowest unoccupied level (ev):    13.2968   17.5128

!    total energy              =     -22.88833547 Ry
     Harris-Foulkes estimate   =     -22.88833547 Ry
     estimated scf accuracy    <          6.4E-16 Ry

     The total energy is the sum of the following terms:

     one-electron contribution =       8.01552170 Ry
     hartree contribution      =       1.90738417 Ry
     xc contribution           =      -7.09639791 Ry
     ewald contribution        =     -25.71484343 Ry

     convergence has been achieved in  11 iterations

     Forces acting on atoms (cartesian axes, Ry/au):

     atom    1 type  1   force =    -0.00000000   -0.00000000    0.00000000
     atom    2 type  1   force =     0.00000000    0.00000000   -0.00000000

     Total force =     0.000000     Total SCF correction =     0.000000


     Computing stress (Cartesian axis) and pressure

          total   stress  (Ry/bohr**3)                   (kbar)     P= -109.84
  -0.00074670  -0.00000000   0.00000000       -109.84     -0.00      0.00
   0.00000000  -0.00074670  -0.00000000          0.00   -109.84     -0.00
   0.00000000  -0.00000000  -0.00074670          0.00     -0.00   -109.84


     BFGS Geometry Optimization

     number of scf cycles    =   1
     number of bfgs steps    =   0

     enthalpy new            =     -22.8883354742 Ry

     new trust radius        =       0.0323987959 bohr
     new conv_thr            =            1.0E-15 Ry

     new unit-cell volume =     71.16707 a.u.^3 (    10.54587 Ang^3 )
     density =      3.78247 g/cm^3

CELL_PARAMETERS (alat=  6.70342551)
  -0.490666303   0.000000000   0.490666303
  -0.000000000   0.490666303   0.490666303
  -0.490666303   0.490666303  -0.000000000

ATOMIC_POSITIONS (crystal)
C        0.000000000  -0.000000000  -0.000000000
C        0.250000000   0.250000000   0.250000000



     Writing output data file c.save
     NEW-OLD atomic charge density approx. for the potential
     extrapolated charge    7.53472, renormalised to    8.00000

     total cpu time spent up to now is        9.2 secs

     per-process dynamical memory:    20.8 Mb

     Self-consistent Calculation

     iteration #  1     ecut=    60.00 Ry     beta=0.70
     Davidson diagonalization with overlap
     ethr =  1.00E-06,  avg # of iterations =  4.1

     total cpu time spent up to now is       10.3 secs

     total energy              =     -22.88469910 Ry
     Harris-Foulkes estimate   =     -22.55739829 Ry
     estimated scf accuracy    <       0.00162782 Ry

     iteration #  2     ecut=    60.00 Ry     beta=0.70
     Davidson diagonalization with overlap
     ethr =  2.03E-05,  avg # of iterations =  3.2

     total cpu time spent up to now is       11.4 secs

     total energy              =     -22.88781547 Ry
     Harris-Foulkes estimate   =     -22.88792160 Ry
     estimated scf accuracy    <       0.00035387 Ry

     iteration #  3     ecut=    60.00 Ry     beta=0.70
     Davidson diagonalization with overlap
     ethr =  4.42E-06,  avg # of iterations =  1.0

     total cpu time spent up to now is       11.8 secs

     total energy              =     -22.88775212 Ry
     Harris-Foulkes estimate   =     -22.88782198 Ry
     estimated scf accuracy    <       0.00012986 Ry

     iteration #  4     ecut=    60.00 Ry     beta=0.70
     Davidson diagonalization with overlap
     ethr =  1.62E-06,  avg # of iterations =  2.0

     total cpu time spent up to now is       12.5 secs

     total energy              =     -22.88776403 Ry
     Harris-Foulkes estimate   =     -22.88776463 Ry
     estimated scf accuracy    <       0.00000114 Ry

     iteration #  5     ecut=    60.00 Ry     beta=0.70
     Davidson diagonalization with overlap
     ethr =  1.43E-08,  avg # of iterations =  2.8

     total cpu time spent up to now is       13.4 secs

     total energy              =     -22.88776437 Ry
     Harris-Foulkes estimate   =     -22.88776445 Ry
     estimated scf accuracy    <       0.00000016 Ry

     iteration #  6     ecut=    60.00 Ry     beta=0.70
     Davidson diagonalization with overlap
     ethr =  2.02E-09,  avg # of iterations =  2.0

     total cpu time spent up to now is       14.1 secs

     total energy              =     -22.88776438 Ry
     Harris-Foulkes estimate   =     -22.88776438 Ry
     estimated scf accuracy    <          2.7E-09 Ry

     iteration #  7     ecut=    60.00 Ry     beta=0.70
     Davidson diagonalization with overlap
     ethr =  3.35E-11,  avg # of iterations =  2.4

     total cpu time spent up to now is       14.9 secs

     total energy              =     -22.88776438 Ry
     Harris-Foulkes estimate   =     -22.88776438 Ry
     estimated scf accuracy    <          2.4E-11 Ry

     iteration #  8     ecut=    60.00 Ry     beta=0.70
     Davidson diagonalization with overlap
     ethr =  3.06E-13,  avg # of iterations =  2.2

     total cpu time spent up to now is       15.6 secs

     total energy              =     -22.88776438 Ry
     Harris-Foulkes estimate   =     -22.88776438 Ry
     estimated scf accuracy    <          2.0E-12 Ry

     iteration #  9     ecut=    60.00 Ry     beta=0.70
     Davidson diagonalization with overlap
     ethr =  1.00E-13,  avg # of iterations =  1.6

     total cpu time spent up to now is       16.2 secs

     total energy              =     -22.88776438 Ry
     Harris-Foulkes estimate   =     -22.88776438 Ry
     estimated scf accuracy    <          1.1E-14 Ry

     iteration # 10     ecut=    60.00 Ry     beta=0.70
     Davidson diagonalization with overlap
     ethr =  1.00E-13,  avg # of iterations =  1.0

     total cpu time spent up to now is       16.7 secs

     total energy              =     -22.88776438 Ry
     Harris-Foulkes estimate   =     -22.88776438 Ry
     estimated scf accuracy    <          7.4E-15 Ry

     iteration # 11     ecut=    60.00 Ry     beta=0.70
     Davidson diagonalization with overlap
     ethr =  1.00E-13,  avg # of iterations =  1.0

     total cpu time spent up to now is       17.1 secs

     End of self-consistent calculation

          k = 0.0000 0.0000 0.0000 (   609 PWs)   bands (ev):

    -7.9190  14.3369  14.3369  14.3369  20.1053  20.1053  20.1053  29.4131

          k =-0.0849 0.0849-0.0849 (   582 PWs)   bands (ev):

    -7.7164  13.0623  13.9907  13.9907  20.5583  20.5583  20.9077  29.4981

          k =-0.1698 0.1698-0.1698 (   582 PWs)   bands (ev):

    -7.1109  10.4408  13.2442  13.2442  21.5339  21.5339  22.2049  29.7284

          k =-0.2548 0.2548-0.2548 (   589 PWs)   bands (ev):

    -6.1101   7.4994  12.4793  12.4793  22.4262  22.4262  23.2164  30.0389

          k =-0.3397 0.3397-0.3397 (   601 PWs)   bands (ev):

    -4.7312   4.6006  11.8748  11.8748  22.9104  22.9104  23.8723  30.2995

          k =-0.4246 0.4246-0.4246 (   592 PWs)   bands (ev):

    -3.0296   1.9446  11.4972  11.4972  23.0491  23.0491  24.2361  30.4184

          k = 0.5095-0.5095 0.5095 (   580 PWs)   bands (ev):

    -1.6319   0.2227  11.3696  11.3696  23.0619  23.0619  24.3528  30.4404

          k = 0.0000 0.1698 0.0000 (   585 PWs)   bands (ev):

    -7.6489  13.3549  13.3549  13.7524  19.9179  21.3198  21.3198  29.3995

          k =-0.0849 0.2548-0.0849 (   582 PWs)   bands (ev):

    -7.1779  11.3317  12.4990  13.3846  20.2427  22.4602  22.5399  29.2055

          k =-0.1698 0.3397-0.1698 (   583 PWs)   bands (ev):

    -6.3090   8.5477  11.7365  12.6803  21.1455  23.4510  23.6149  29.0525

          k =-0.2548 0.4246-0.2548 (   594 PWs)   bands (ev):

    -5.0557   5.6643  11.2049  11.8883  21.9478  23.9545  24.3363  29.2876

          k =-0.3397 0.5095-0.3397 (   596 PWs)   bands (ev):

    -3.4539   2.9346  10.9543  11.2063  22.3968  23.9751  24.7563  29.9125

          k = 0.5944-0.4246 0.5944 (   591 PWs)   bands (ev):

    -1.7331   0.6857  10.7262  10.9938  22.6819  23.7459  24.9278  30.4341

          k = 0.5095-0.3397 0.5095 (   592 PWs)   bands (ev):

    -2.2675   1.3279  10.4967  11.3088  22.9908  23.4385  24.8640  30.4895

          k = 0.4246-0.2548 0.4246 (   592 PWs)   bands (ev):

    -4.0223   3.8204  10.5463  11.8657  23.0366  23.2916  24.5419  30.1099

          k = 0.3397-0.1698 0.3397 (   591 PWs)   bands (ev):

    -5.5150   6.6270  10.8852  12.6039  22.3883  23.3335  23.8978  29.6623

          k = 0.2548-0.0849 0.2548 (   580 PWs)   bands (ev):

    -6.6423   9.5141  11.5027  13.4018  21.4680  22.7308  22.9964  29.4976

          k = 0.1698-0.0000 0.1698 (   578 PWs)   bands (ev):

    -7.3794  12.0331  12.4707  13.9955  20.6540  21.5597  21.9338  29.5133

          k = 0.0000 0.3397 0.0000 (   584 PWs)   bands (ev):

    -6.8425  11.5817  11.5817  12.1697  19.4699  23.7722  23.7722  28.0247

          k =-0.0849 0.4246-0.0849 (   582 PWs)   bands (ev):

    -6.1087   9.5188  10.7851  11.6319  19.7560  24.9760  24.9874  26.9284

          k =-0.1698 0.5095-0.1698 (   591 PWs)   bands (ev):

    -4.9878   6.8675  10.2458  10.8234  20.6157  25.6905  25.7913  26.6881

          k =-0.2548 0.5944-0.2548 (   589 PWs)   bands (ev):

    -3.5062   4.1959   9.9255  10.0185  21.2803  25.8047  26.2922  27.5823

          k = 0.6793-0.3397 0.6793 (   588 PWs)   bands (ev):

    -1.7739   1.7861   9.1599  10.1159  21.6940  25.4984  26.5469  29.2124

          k = 0.5944-0.2548 0.5944 (   590 PWs)   bands (ev):

    -1.2618   1.1844   8.6363  10.5219  22.1519  24.9784  26.5416  30.4625

          k = 0.5095-0.1698 0.5095 (   589 PWs)   bands (ev):

    -2.9499   3.3833   8.4132  11.1916  22.7414  24.2898  26.2510  30.0732

          k = 0.4246-0.0849 0.4246 (   593 PWs)   bands (ev):

    -4.5349   6.0249   8.5297  12.0364  23.3054  23.3577  25.4921  29.2218

          k = 0.3397 0.0000 0.3397 (   594 PWs)   bands (ev):

    -5.7788   8.5029   9.2381  12.8816  22.2616  23.4746  24.1891  29.0789

          k = 0.0000 0.5095 0.0000 (   592 PWs)   bands (ev):

    -5.5117   9.8840   9.9358   9.9358  18.9956  25.0297  26.4921  26.4921

          k =-0.0849 0.5944-0.0849 (   593 PWs)   bands (ev):

    -4.5271   7.7952   9.3423   9.3902  19.3398  24.0195  27.5698  27.6309

          k =-0.1698 0.6793-0.1698 (   595 PWs)   bands (ev):

    -3.1768   5.4737   8.3433   9.0712  20.1345  24.3734  27.9675  28.3095

          k = 0.7643-0.2548 0.7643 (   598 PWs)   bands (ev):

    -1.5282   3.1672   7.3051   9.1431  20.6439  26.2222  27.7477  28.6214

          k = 0.6793-0.1698 0.6793 (   589 PWs)   bands (ev):

    -0.2468   1.6817   6.5128   9.5478  21.1237  27.1024  28.6785  28.7685

          k = 0.5944-0.0849 0.5944 (   591 PWs)   bands (ev):

    -1.5596   3.2969   6.0652  10.2428  21.7953  26.1130  28.4726  30.1344

          k = 0.5095 0.0000 0.5095 (   590 PWs)   bands (ev):

    -3.1933   5.4344   6.2862  11.1352  22.6141  24.7876  27.3876  29.2811

          k = 0.0000 0.6793 0.0000 (   576 PWs)   bands (ev):

    -3.6806   7.1393   8.6760   8.6760  18.7056  22.3218  29.1063  29.1063

          k =-0.0849 0.7643-0.0849 (   595 PWs)   bands (ev):

    -2.4676   5.5708   7.7149   8.3292  19.1656  21.8016  29.9288  30.0445

          k = 0.8492-0.1698 0.8492 (   594 PWs)   bands (ev):

    -0.9364   3.9672   6.1788   8.3327  19.8130  23.0116  29.9285  30.4792

          k = 0.7643-0.0849 0.7643 (   591 PWs)   bands (ev):

     0.6195   2.5313   4.8379   8.6840  20.2663  25.6274  29.2131  30.5785

          k = 0.6793 0.0000 0.6793 (   598 PWs)   bands (ev):

     0.0150   3.1459   4.3290   9.3485  20.9135  27.8906  28.6133  30.3782

          k = 0.0000 0.8492 0.0000 (   600 PWs)   bands (ev):

    -1.3940   4.1830   7.8948   7.8948  18.7569  20.4224  31.2066  31.2066

          k = 0.9341-0.0849 0.9341 (   603 PWs)   bands (ev):

     0.0054   2.7721   7.0369   7.8101  19.3078  20.4578  31.5040  31.6835

          k = 0.8492 0.0000 0.8492 (   598 PWs)   bands (ev):

     1.4583   1.7433   5.4984   8.0816  19.7018  22.5618  30.7906  31.5310

          k = 0.0000-1.0190 0.0000 (   588 PWs)   bands (ev):

     1.2714   1.2714   7.6307   7.6307  19.2832  19.2832  32.0756  32.0756

          k =-0.1698 0.3397 0.0000 (   585 PWs)   bands (ev):

    -6.5754  10.2291  10.7966  12.9551  20.5032  23.5851  23.7343  28.5192

          k =-0.2548 0.4246-0.0849 (   592 PWs)   bands (ev):

    -5.5802   7.7386   9.9391  12.2442  21.4122  24.1325  24.9567  28.1407

          k =-0.3397 0.5095-0.1698 (   592 PWs)   bands (ev):

    -4.2113   4.9810   9.5471  11.4104  22.2445  24.1496  25.8005  28.6399

          k = 0.5944-0.4246 0.7643 (   591 PWs)   bands (ev):

    -2.5287   2.4015   9.4314  10.7215  22.6315  23.9980  26.2293  29.7604

          k = 0.5095-0.3397 0.6793 (   592 PWs)   bands (ev):

    -1.1657   0.7307   9.4492  10.4253  22.7164  23.9276  26.3564  30.4307

          k =-0.1698 0.5095 0.0000 (   592 PWs)   bands (ev):

    -5.2492   8.4750   9.2111  10.9716  20.0755  25.4512  26.0938  26.4889

          k =-0.2548 0.5944-0.0849 (   594 PWs)   bands (ev):

    -4.0126   6.2197   8.4814  10.1577  21.0227  25.1742  26.4733  27.6560

          k = 0.6793-0.3397 0.8492 (   590 PWs)   bands (ev):

    -2.4406   3.7360   8.1231   9.4615  21.6999  25.4050  27.3065  28.3181

          k = 0.5944-0.2548 0.7643 (   588 PWs)   bands (ev):

    -0.7830   1.6377   7.7136   9.3458  22.1045  25.2524  28.3540  29.2381

          k = 0.5095-0.1698 0.6793 (   588 PWs)   bands (ev):

    -1.3006   2.2648   7.3406   9.7938  22.5912  24.7457  28.2118  29.9256

          k = 0.4246-0.0849 0.5944 (   592 PWs)   bands (ev):

    -3.0034   4.6113   7.2290  10.5748  23.1940  23.9057  27.7055  28.6062

          k = 0.3397 0.0000 0.5095 (   586 PWs)   bands (ev):

    -4.4683   6.9009   7.7311  11.4891  22.5130  23.9679  26.5686  27.8330

          k =-0.1698 0.6793-0.0000 (   591 PWs)   bands (ev):

    -3.4275   6.6461   7.9975   8.8333  19.7967  23.1818  28.1130  29.1463

          k = 0.7643-0.2548 0.9341 (   592 PWs)   bands (ev):

    -1.9834   4.8630   6.9764   8.2472  20.7392  23.6968  28.1316  30.0409

          k = 0.6793-0.1698 0.8492 (   592 PWs)   bands (ev):

    -0.3227   2.9191   5.9771   8.2856  21.2603  25.7505  27.8525  30.1557

          k = 0.5944-0.0849 0.7643 (   590 PWs)   bands (ev):

     0.1017   2.5182   5.2546   8.7855  21.7820  26.7550  28.7764  29.6002

          k = 0.5095 0.0000 0.6793 (   594 PWs)   bands (ev):

    -1.4835   4.2258   5.2222   9.6020  22.5072  25.4800  28.8150  29.5663

          k = 0.8492-0.1698 1.0190 (   595 PWs)   bands (ev):

    -1.1606   4.2126   7.2645   7.5163  19.8365  21.3971  30.2201  31.1375

          k = 0.7643-0.0849 0.9341 (   592 PWs)   bands (ev):

     0.4113   2.9358   5.7632   7.5010  20.6281  22.7604  29.9833  31.1095

          k = 0.6793 0.0000 0.8492 (   597 PWs)   bands (ev):

     1.3252   2.3875   4.4443   7.9789  21.0958  25.5670  28.9914  30.3213

          k =-0.1698-1.0190-0.0000 (   592 PWs)   bands (ev):

     1.4549   1.4549   7.0750   7.0750  20.3263  20.3263  31.5368  31.5368

          k = 0.6793-0.3397 1.0190 (   593 PWs)   bands (ev):

    -2.6795   5.4988   6.5880   9.2325  22.3908  24.4678  26.7263  29.2823

          k = 0.5944-0.2548 0.9341 (   586 PWs)   bands (ev):

    -1.0610   3.5836   6.1720   8.3635  23.2676  24.6468  27.4421  30.0129

          k = 0.5095-0.1698 0.8492 (   584 PWs)   bands (ev):

     0.2060   2.1107   6.1869   7.9903  23.2910  24.9808  29.0115  29.1479

          k = 0.6793-0.1698 1.0190 (   596 PWs)   bands (ev):

    -0.4881   4.0247   5.9522   7.0506  22.4565  23.6563  27.8968  30.7001

          k = 0.5944-0.0849 0.9341 (   596 PWs)   bands (ev):

     1.0363   2.8155   5.0967   6.7497  23.2151  25.4477  27.6579  29.3786

          k = 0.5095 0.0000 0.8492 (   592 PWs)   bands (ev):

     0.4946   3.2751   4.7709   7.3391  23.6307  25.6362  27.8880  28.9873

          k =-0.3397-1.0190 0.0000 (   600 PWs)   bands (ev):

     1.9151   1.9151   5.9813   5.9813  22.8601  22.8601  29.7018  29.7018

          k =-0.5095-1.0190 0.0000 (   604 PWs)   bands (ev):

     2.2312   2.2312   5.3887   5.3887  25.1605  25.1605  27.6052  27.6052

     highest occupied, lowest unoccupied level (ev):    14.3369   18.7056

!    total energy              =     -22.88776438 Ry
     Harris-Foulkes estimate   =     -22.88776438 Ry
     estimated scf accuracy    <          2.0E-17 Ry

     The total energy is the sum of the following terms:

     one-electron contribution =       8.65519444 Ry
     hartree contribution      =       1.85290968 Ry
     xc contribution           =      -7.19186462 Ry
     ewald contribution        =     -26.20400389 Ry

     convergence has been achieved in  11 iterations

     Forces acting on atoms (cartesian axes, Ry/au):

     atom    1 type  1   force =    -0.00000000   -0.00000000   -0.00000000
     atom    2 type  1   force =    -0.00000000   -0.00000000   -0.00000000

     Total force =     0.000000     Total SCF correction =     0.000000


     Computing stress (Cartesian axis) and pressure

          total   stress  (Ry/bohr**3)                   (kbar)     P=  160.56
   0.00109150   0.00000000  -0.00000000        160.56      0.00     -0.00
  -0.00000000   0.00109150   0.00000000         -0.00    160.56      0.00
  -0.00000000   0.00000000   0.00109150         -0.00      0.00    160.56


     number of scf cycles    =   2
     number of bfgs steps    =   1

     enthalpy old            =     -22.8883354742 Ry
     enthalpy new            =     -22.8877643810 Ry

     CASE: enthalpy_new > enthalpy_old

     new trust radius        =       0.0135839728 bohr
     new conv_thr            =            1.0E-15 Ry

     new unit-cell volume =     73.53526 a.u.^3 (    10.89680 Ang^3 )
     density =      3.66066 g/cm^3

CELL_PARAMETERS (alat=  6.70342551)
  -0.496049578   0.000000000   0.496049578
  -0.000000000   0.496049578   0.496049578
  -0.496049578   0.496049578  -0.000000000

ATOMIC_POSITIONS (crystal)
C        0.000000000  -0.000000000  -0.000000000
C        0.250000000   0.250000000   0.250000000



     Writing output data file c.save
     NEW-OLD atomic charge density approx. for the potential
     extrapolated charge    8.25764, renormalised to    8.00000

     total cpu time spent up to now is       17.3 secs

     per-process dynamical memory:    23.3 Mb

     Self-consistent Calculation

     iteration #  1     ecut=    60.00 Ry     beta=0.70
     Davidson diagonalization with overlap
     ethr =  1.00E-06,  avg # of iterations =  3.9

     total cpu time spent up to now is       18.4 secs

     total energy              =     -22.88805461 Ry
     Harris-Foulkes estimate   =     -23.06847655 Ry
     estimated scf accuracy    <       0.00041361 Ry

     iteration #  2     ecut=    60.00 Ry     beta=0.70
     Davidson diagonalization with overlap
     ethr =  5.17E-06,  avg # of iterations =  3.4

     total cpu time spent up to now is       19.5 secs

     total energy              =     -22.88903509 Ry
     Harris-Foulkes estimate   =     -22.88907767 Ry
     estimated scf accuracy    <       0.00014150 Ry

     iteration #  3     ecut=    60.00 Ry     beta=0.70
     Davidson diagonalization with overlap
     ethr =  1.77E-06,  avg # of iterations =  1.0

     total cpu time spent up to now is       19.9 secs

     total energy              =     -22.88900607 Ry
     Harris-Foulkes estimate   =     -22.88903730 Ry
     estimated scf accuracy    <       0.00005772 Ry

     iteration #  4     ecut=    60.00 Ry     beta=0.70
     Davidson diagonalization with overlap
     ethr =  7.21E-07,  avg # of iterations =  2.0

     total cpu time spent up to now is       20.6 secs

     total energy              =     -22.88901087 Ry
     Harris-Foulkes estimate   =     -22.88901137 Ry
     estimated scf accuracy    <       0.00000088 Ry

     iteration #  5     ecut=    60.00 Ry     beta=0.70
     Davidson diagonalization with overlap
     ethr =  1.10E-08,  avg # of iterations =  2.7

     total cpu time spent up to now is       21.5 secs

     total energy              =     -22.88901108 Ry
     Harris-Foulkes estimate   =     -22.88901112 Ry
     estimated scf accuracy    <       0.00000007 Ry

     iteration #  6     ecut=    60.00 Ry     beta=0.70
     Davidson diagonalization with overlap
     ethr =  8.73E-10,  avg # of iterations =  2.1

     total cpu time spent up to now is       22.2 secs

     total energy              =     -22.88901109 Ry
     Harris-Foulkes estimate   =     -22.88901109 Ry
     estimated scf accuracy    <          2.2E-09 Ry

     iteration #  7     ecut=    60.00 Ry     beta=0.70
     Davidson diagonalization with overlap
     ethr =  2.76E-11,  avg # of iterations =  2.4

     total cpu time spent up to now is       23.0 secs

     total energy              =     -22.88901109 Ry
     Harris-Foulkes estimate   =     -22.88901109 Ry
     estimated scf accuracy    <          1.3E-11 Ry

     iteration #  8     ecut=    60.00 Ry     beta=0.70
     Davidson diagonalization with overlap
     ethr =  1.64E-13,  avg # of iterations =  2.1

     total cpu time spent up to now is       23.7 secs

     total energy              =     -22.88901109 Ry
     Harris-Foulkes estimate   =     -22.88901109 Ry
     estimated scf accuracy    <          1.8E-12 Ry

     iteration #  9     ecut=    60.00 Ry     beta=0.70
     Davidson diagonalization with overlap
     ethr =  1.00E-13,  avg # of iterations =  1.3

     total cpu time spent up to now is       24.2 secs

     total energy              =     -22.88901109 Ry
     Harris-Foulkes estimate   =     -22.88901109 Ry
     estimated scf accuracy    <          7.8E-15 Ry

     iteration # 10     ecut=    60.00 Ry     beta=0.70
     Davidson diagonalization with overlap
     ethr =  1.00E-13,  avg # of iterations =  1.0

     total cpu time spent up to now is       24.7 secs

     total energy              =     -22.88901109 Ry
     Harris-Foulkes estimate   =     -22.88901109 Ry
     estimated scf accuracy    <          4.5E-15 Ry

     iteration # 11     ecut=    60.00 Ry     beta=0.70
     Davidson diagonalization with overlap
     ethr =  1.00E-13,  avg # of iterations =  1.0

     total cpu time spent up to now is       25.1 secs

     End of self-consistent calculation

          k = 0.0000 0.0000 0.0000 (   609 PWs)   bands (ev):

    -8.0775  13.7291  13.7291  13.7291  19.4029  19.4029  19.4029  28.0467

          k =-0.0840 0.0840-0.0840 (   582 PWs)   bands (ev):

    -7.8792  12.4883  13.3952  13.3952  19.8400  19.8400  20.1648  28.1588

          k =-0.1680 0.1680-0.1680 (   582 PWs)   bands (ev):

    -7.2870   9.9273  12.6723  12.6723  20.7855  20.7855  21.3805  28.4679

          k =-0.2520 0.2520-0.2520 (   589 PWs)   bands (ev):

    -6.3085   7.0501  11.9292  11.9292  21.6586  21.6586  22.2995  28.8974

          k =-0.3360 0.3360-0.3360 (   601 PWs)   bands (ev):

    -4.9623   4.2156  11.3407  11.3407  22.1440  22.1440  22.8736  29.2825

          k =-0.4200 0.4200-0.4200 (   592 PWs)   bands (ev):

    -3.3090   1.6277  10.9728  10.9728  22.2932  22.2932  23.1835  29.4855

          k = 0.5040-0.5040 0.5040 (   580 PWs)   bands (ev):

    -1.9884  -0.0101  10.8484  10.8484  22.3112  22.3112  23.2817  29.5344

          k = 0.0000 0.1680 0.0000 (   585 PWs)   bands (ev):

    -7.8132  12.7832  12.7832  13.1442  19.2147  20.5729  20.5729  28.0845

          k =-0.0840 0.2520-0.0840 (   582 PWs)   bands (ev):

    -7.3525  10.7990  11.9544  12.7918  19.5256  21.6768  21.7359  27.9957

          k =-0.1680 0.3360-0.1680 (   583 PWs)   bands (ev):

    -6.5028   8.0748  11.2133  12.1087  20.4031  22.6430  22.7321  27.9727

          k =-0.2520 0.4200-0.2520 (   594 PWs)   bands (ev):

    -5.2785   5.2543  10.6951  11.3396  21.1935  23.1458  23.3745  28.2900

          k =-0.3360 0.5040-0.3360 (   596 PWs)   bands (ev):

    -3.7183   2.5898  10.4495  10.6776  21.6474  23.1823  23.7309  28.9527

          k = 0.5880-0.4200 0.5880 (   591 PWs)   bands (ev):

    -2.0702   0.4245  10.2123  10.4858  21.9355  22.9693  23.8698  29.4913

          k = 0.5040-0.3360 0.5040 (   592 PWs)   bands (ev):

    -2.5742   1.0340   9.9915  10.7903  22.2336  22.6697  23.8128  29.5343

          k = 0.4200-0.2520 0.4200 (   592 PWs)   bands (ev):

    -4.2710   3.4533  10.0423  11.3303  22.2688  22.5103  23.5374  29.1069

          k = 0.3360-0.1680 0.3360 (   591 PWs)   bands (ev):

    -5.7270   6.1956  10.3748  12.0466  21.6263  22.5316  22.9664  28.5838

          k = 0.2520-0.0840 0.2520 (   580 PWs)   bands (ev):

    -6.8287   9.0189  10.9785  12.8206  20.7265  21.9278  22.1502  28.3173

          k = 0.1680-0.0000 0.1680 (   578 PWs)   bands (ev):

    -7.5496  11.4766  11.9265  13.3964  19.9360  20.7912  21.1556  28.2287

          k = 0.0000 0.3360 0.0000 (   584 PWs)   bands (ev):

    -7.0243  11.0660  11.0660  11.5704  18.7662  22.9446  22.9446  26.9803

          k =-0.0840 0.4200-0.0840 (   582 PWs)   bands (ev):

    -6.3068   9.0226  10.2923  11.0692  19.0408  24.1078  24.1130  26.0073

          k =-0.1680 0.5040-0.1680 (   591 PWs)   bands (ev):

    -5.2114   6.4262   9.7670  10.2863  19.8822  24.8156  24.8776  25.7782

          k =-0.2520 0.5880-0.2520 (   589 PWs)   bands (ev):

    -3.7665   3.8160   9.4151   9.5444  20.5451  24.9416  25.3102  26.6575

          k = 0.6720-0.3360 0.6720 (   588 PWs)   bands (ev):

    -2.0914   1.4780   8.6728   9.6371  20.9616  24.6555  25.5007  28.2588

          k = 0.5880-0.2520 0.5880 (   590 PWs)   bands (ev):

    -1.6085   0.9075   8.1662  10.0297  21.4098  24.1522  25.4852  29.4539

          k = 0.5040-0.1680 0.5040 (   589 PWs)   bands (ev):

    -3.2262   3.0253   7.9529  10.6784  21.9721  23.4765  25.2376  29.0259

          k = 0.4200-0.0840 0.4200 (   593 PWs)   bands (ev):

    -4.7696   5.6010   8.0727  11.4969  22.4942  22.5629  24.5628  28.1434

          k = 0.3360 0.0000 0.3360 (   594 PWs)   bands (ev):

    -5.9845   8.0115   8.7808  12.3156  21.4966  22.6325  23.3260  27.9719

          k = 0.0000 0.5040 0.0000 (   592 PWs)   bands (ev):

    -5.7230   9.3163   9.4678   9.4678  18.2939  24.2157  25.5772  25.5772

          k =-0.0840 0.5880-0.0840 (   593 PWs)   bands (ev):

    -4.7607   7.3073   8.8905   8.9031  18.6293  23.2508  26.6237  26.6578

          k =-0.1680 0.6720-0.1680 (   595 PWs)   bands (ev):

    -3.4428   5.0442   7.8805   8.6259  19.4160  23.5915  27.0191  27.2710

          k = 0.7560-0.2520 0.7560 (   598 PWs)   bands (ev):

    -1.8414   2.8034   6.8675   8.6945  19.9294  25.3751  26.8163  27.5367

          k = 0.6720-0.1680 0.6720 (   589 PWs)   bands (ev):

    -0.6277   1.3926   6.0959   9.0863  20.4044  26.1935  27.5574  27.8468

          k = 0.5880-0.0840 0.5880 (   591 PWs)   bands (ev):

    -1.8746   2.9338   5.6650   9.7599  21.0571  25.2308  27.4053  29.0400

          k = 0.5040 0.0000 0.5040 (   590 PWs)   bands (ev):

    -3.4610   4.9953   5.9042  10.6245  21.8426  23.9448  26.4210  28.1639

          k = 0.0000 0.6720 0.0000 (   576 PWs)   bands (ev):

    -3.9332   6.6279   8.2430   8.2430  18.0086  21.5970  28.1030  28.1030

          k =-0.0840 0.7560-0.0840 (   595 PWs)   bands (ev):

    -2.7488   5.0942   7.3091   7.9053  18.4625  21.0821  28.8991  28.9907

          k = 0.8400-0.1680 0.8400 (   594 PWs)   bands (ev):

    -1.2579   3.5273   5.8175   7.9079  19.1114  22.2422  28.9046  29.3793

          k = 0.7560-0.0840 0.7560 (   591 PWs)   bands (ev):

     0.2331   2.1535   4.5107   8.2485  19.5636  24.7747  28.2171  29.4516

          k = 0.6720 0.0000 0.6720 (   598 PWs)   bands (ev):

    -0.3528   2.7449   4.0215   8.8931  20.1983  26.9419  27.6269  29.2344

          k = 0.0000 0.8400 0.0000 (   600 PWs)   bands (ev):

    -1.6999   3.7419   7.4830   7.4830  18.0654  19.7282  30.1224  30.1224

          k = 0.9240-0.0840 0.9240 (   603 PWs)   bands (ev):

    -0.3352   2.3625   6.6506   7.4003  18.6143  19.7486  30.4084  30.5672

          k = 0.8400 0.0000 0.8400 (   598 PWs)   bands (ev):

     1.0599   1.3656   5.1651   7.6638  19.0084  21.7921  29.7268  30.3960

          k = 0.0000-1.0080 0.0000 (   588 PWs)   bands (ev):

     0.9016   0.9016   7.2260   7.2260  18.5949  18.5949  30.9531  30.9531

          k =-0.1680 0.3360 0.0000 (   585 PWs)   bands (ev):

    -6.7632   9.7082  10.3005  12.3766  19.7753  22.7469  22.9016  27.4486

          k =-0.2520 0.4200-0.0840 (   592 PWs)   bands (ev):

    -5.7904   7.2788   9.4532  11.6895  20.6602  23.2789  24.0700  27.1480

          k =-0.3360 0.5040-0.1680 (   592 PWs)   bands (ev):

    -4.4541   4.5842   9.0652  10.8836  21.4848  23.3047  24.8443  27.6672

          k = 0.5880-0.4200 0.7560 (   591 PWs)   bands (ev):

    -2.8195   2.0717   8.9454  10.2203  21.8927  23.1460  25.2195  28.7821

          k = 0.5040-0.3360 0.6720 (   592 PWs)   bands (ev):

    -1.5303   0.4810   8.9572   9.9377  21.9930  23.0670  25.3284  29.4431

          k =-0.1680 0.5040 0.0000 (   592 PWs)   bands (ev):

    -5.4666   7.9783   8.7587  10.4449  19.3491  24.6569  25.1342  25.5712

          k =-0.2520 0.5880-0.0840 (   594 PWs)   bands (ev):

    -4.2589   5.7818   8.0269   9.6656  20.2773  24.4143  25.4676  26.6921

          k = 0.6720-0.3360 0.8400 (   590 PWs)   bands (ev):

    -2.7282   3.3623   7.6607   9.0027  20.9587  24.5760  26.2999  27.3302

          k = 0.5880-0.2520 0.7560 (   588 PWs)   bands (ev):

    -1.1394   1.3436   7.2572   8.8942  21.3723  24.3764  27.2674  28.2739

          k = 0.5040-0.1680 0.6720 (   588 PWs)   bands (ev):

    -1.6293   1.9409   6.8997   9.3245  21.8543  23.8760  27.1407  28.8959

          k = 0.4200-0.0840 0.5880 (   592 PWs)   bands (ev):

    -3.2761   4.2147   6.8002  10.0786  22.4347  23.0666  26.6819  27.6054

          k = 0.3360 0.0000 0.5040 (   586 PWs)   bands (ev):

    -4.7042   6.4349   7.3125  10.9619  21.7285  23.1516  25.6398  26.8240

          k =-0.1680 0.6720-0.0000 (   591 PWs)   bands (ev):

    -3.6866   6.1543   7.5786   8.3915  19.0753  22.4395  27.1191  28.1379

          k = 0.7560-0.2520 0.9240 (   592 PWs)   bands (ev):

    -2.2788   4.4202   6.5681   7.8308  20.0073  22.9338  27.1218  28.9851

          k = 0.6720-0.1680 0.8400 (   592 PWs)   bands (ev):

    -0.6726   2.5481   5.5861   7.8652  20.5347  24.9272  26.8391  29.0676

          k = 0.5880-0.0840 0.7560 (   590 PWs)   bands (ev):

    -0.2749   2.1760   4.8838   8.3473  21.0519  25.8606  27.7533  28.5103

          k = 0.5040 0.0000 0.6720 (   594 PWs)   bands (ev):

    -1.7978   3.8027   4.8741   9.1376  21.7606  24.6136  27.7397  28.4989

          k = 0.8400-0.1680 1.0080 (   595 PWs)   bands (ev):

    -1.4737   3.7634   6.8673   7.1222  19.1210  20.6804  29.1609  30.0492

          k = 0.7560-0.0840 0.9240 (   592 PWs)   bands (ev):

     0.0532   2.5111   5.4212   7.1018  19.9108  21.9933  28.9307  30.0034

          k = 0.6720 0.0000 0.8400 (   597 PWs)   bands (ev):

     0.9083   1.9939   4.1554   7.5646  20.3757  24.7242  27.9824  29.2149

          k =-0.1680-1.0080-0.0000 (   592 PWs)   bands (ev):

     1.0764   1.0764   6.6871   6.6871  19.6144  19.6144  30.4291  30.4291

          k = 0.6720-0.3360 1.0080 (   593 PWs)   bands (ev):

    -2.9586   5.0432   6.2016   8.7771  21.6072  23.7405  25.6915  28.2571

          k = 0.5880-0.2520 0.9240 (   586 PWs)   bands (ev):

    -1.3869   3.1977   5.7680   7.9417  22.5112  23.8337  26.4103  28.9373

          k = 0.5040-0.1680 0.8400 (   584 PWs)   bands (ev):

    -0.1831   1.7976   5.7702   7.5854  22.5652  24.0932  27.9388  28.1170

          k = 0.6720-0.1680 1.0080 (   596 PWs)   bands (ev):

    -0.8241   3.5707   5.5901   6.6788  21.6803  22.9095  26.8711  29.6098

          k = 0.5880-0.0840 0.9240 (   596 PWs)   bands (ev):

     0.6409   2.4075   4.7636   6.3824  22.4565  24.6515  26.6175  28.3267

          k = 0.5040 0.0000 0.8400 (   592 PWs)   bands (ev):

     0.1174   2.8510   4.4535   6.9493  22.8832  24.7931  26.8454  27.9535

          k =-0.3360-1.0080 0.0000 (   600 PWs)   bands (ev):

     1.5102   1.5102   5.6337   5.6337  22.0950  22.0950  28.6472  28.6472

          k =-0.5040-1.0080 0.0000 (   604 PWs)   bands (ev):

     1.8019   1.8019   5.0715   5.0715  24.3983  24.3983  26.5560  26.5560

     highest occupied, lowest unoccupied level (ev):    13.7291   18.0086

!    total energy              =     -22.88901109 Ry
     Harris-Foulkes estimate   =     -22.88901109 Ry
     estimated scf accuracy    <          1.9E-17 Ry

     The total energy is the sum of the following terms:

     one-electron contribution =       8.28262088 Ry
     hartree contribution      =       1.88424915 Ry
     xc contribution           =      -7.13625073 Ry
     ewald contribution        =     -25.91963039 Ry

     convergence has been achieved in  11 iterations

     Forces acting on atoms (cartesian axes, Ry/au):

     atom    1 type  1   force =     0.00000000    0.00000000    0.00000000
     atom    2 type  1   force =     0.00000000    0.00000000    0.00000000

     Total force =     0.000000     Total SCF correction =     0.000000


     Computing stress (Cartesian axis) and pressure

          total   stress  (Ry/bohr**3)                   (kbar)     P=   -2.46
  -0.00001669  -0.00000000   0.00000000         -2.46     -0.00      0.00
  -0.00000000  -0.00001669   0.00000000         -0.00     -2.46      0.00
   0.00000000   0.00000000  -0.00001669          0.00      0.00     -2.46


     number of scf cycles    =   3
     number of bfgs steps    =   1

     enthalpy old            =     -22.8883354742 Ry
     enthalpy new            =     -22.8890110886 Ry

     CASE: enthalpy_new < enthalpy_old

     new trust radius        =       0.0003072199 bohr
     new conv_thr            =            1.0E-17 Ry

     new unit-cell volume =     73.49575 a.u.^3 (    10.89095 Ang^3 )
     density =      3.66263 g/cm^3

CELL_PARAMETERS (alat=  6.70342551)
  -0.495960720   0.000000000   0.495960720
  -0.000000000   0.495960720   0.495960720
  -0.495960720   0.495960720  -0.000000000

ATOMIC_POSITIONS (crystal)
C        0.000000000  -0.000000000  -0.000000000
C        0.250000000   0.250000000   0.250000000



     Writing output data file c.save
     NEW-OLD atomic charge density approx. for the potential
     extrapolated charge    7.99570, renormalised to    8.00000

     total cpu time spent up to now is       25.3 secs

     per-process dynamical memory:    25.8 Mb

     Self-consistent Calculation

     iteration #  1     ecut=    60.00 Ry     beta=0.70
     Davidson diagonalization with overlap
     ethr =  1.00E-06,  avg # of iterations =  1.0

     Threshold (ethr) on eigenvalues was too large:
     Diagonalizing with lowered threshold

     Davidson diagonalization with overlap
     ethr =  1.69E-09,  avg # of iterations =  2.0

     total cpu time spent up to now is       26.2 secs

     total energy              =     -22.88900919 Ry
     Harris-Foulkes estimate   =     -22.88601999 Ry
     estimated scf accuracy    <       0.00000013 Ry

     iteration #  2     ecut=    60.00 Ry     beta=0.70
     Davidson diagonalization with overlap
     ethr =  1.59E-09,  avg # of iterations =  3.3

     total cpu time spent up to now is       27.3 secs

     total energy              =     -22.88900946 Ry
     Harris-Foulkes estimate   =     -22.88900947 Ry
     estimated scf accuracy    <       0.00000004 Ry

     iteration #  3     ecut=    60.00 Ry     beta=0.70
     Davidson diagonalization with overlap
     ethr =  4.51E-10,  avg # of iterations =  1.0

     total cpu time spent up to now is       27.8 secs

     total energy              =     -22.88901141 Ry
     Harris-Foulkes estimate   =     -22.88900946 Ry
     estimated scf accuracy    <       0.00000001 Ry

     iteration #  4     ecut=    60.00 Ry     beta=0.70
     Davidson diagonalization with overlap
     ethr =  1.76E-10,  avg # of iterations =  2.0

     total cpu time spent up to now is       28.4 secs

     total energy              =     -22.88901141 Ry
     Harris-Foulkes estimate   =     -22.88901141 Ry
     estimated scf accuracy    <          1.7E-10 Ry

     iteration #  5     ecut=    60.00 Ry     beta=0.70
     Davidson diagonalization with overlap
     ethr =  2.11E-12,  avg # of iterations =  2.7

     total cpu time spent up to now is       29.3 secs

     total energy              =     -22.88901141 Ry
     Harris-Foulkes estimate   =     -22.88901141 Ry
     estimated scf accuracy    <          1.4E-11 Ry

     iteration #  6     ecut=    60.00 Ry     beta=0.70
     Davidson diagonalization with overlap
     ethr =  1.69E-13,  avg # of iterations =  2.0

     total cpu time spent up to now is       30.0 secs

     total energy              =     -22.88901141 Ry
     Harris-Foulkes estimate   =     -22.88901141 Ry
     estimated scf accuracy    <          1.0E-12 Ry

     iteration #  7     ecut=    60.00 Ry     beta=0.70
     Davidson diagonalization with overlap
     ethr =  1.00E-13,  avg # of iterations =  1.0

     total cpu time spent up to now is       30.5 secs

     total energy              =     -22.88901141 Ry
     Harris-Foulkes estimate   =     -22.88901141 Ry
     estimated scf accuracy    <          4.8E-15 Ry

     iteration #  8     ecut=    60.00 Ry     beta=0.70
     Davidson diagonalization with overlap
     ethr =  1.00E-13,  avg # of iterations =  1.0

     total cpu time spent up to now is       30.9 secs

     total energy              =     -22.88901141 Ry
     Harris-Foulkes estimate   =     -22.88901141 Ry
     estimated scf accuracy    <          6.2E-16 Ry

     iteration #  9     ecut=    60.00 Ry     beta=0.70
     Davidson diagonalization with overlap
     ethr =  1.00E-13,  avg # of iterations =  1.0

     total cpu time spent up to now is       31.4 secs

     total energy              =     -22.88901141 Ry
     Harris-Foulkes estimate   =     -22.88901141 Ry
     estimated scf accuracy    <          1.3E-17 Ry

     iteration # 10     ecut=    60.00 Ry     beta=0.70
     Davidson diagonalization with overlap
     ethr =  1.00E-13,  avg # of iterations =  1.0

     total cpu time spent up to now is       31.8 secs

     End of self-consistent calculation

          k = 0.0000 0.0000 0.0000 (   609 PWs)   bands (ev):

    -8.0750  13.7390  13.7390  13.7390  19.4143  19.4143  19.4143  28.0689

          k =-0.0840 0.0840-0.0840 (   582 PWs)   bands (ev):

    -7.8766  12.4976  13.4049  13.4049  19.8517  19.8517  20.1768  28.1806

          k =-0.1680 0.1680-0.1680 (   582 PWs)   bands (ev):

    -7.2841   9.9356  12.6816  12.6816  20.7976  20.7976  21.3939  28.4885

          k =-0.2520 0.2520-0.2520 (   589 PWs)   bands (ev):

    -6.3053   7.0573  11.9382  11.9382  21.6710  21.6710  22.3144  28.9160

          k =-0.3360 0.3360-0.3360 (   601 PWs)   bands (ev):

    -4.9585   4.2219  11.3494  11.3494  22.1564  22.1564  22.8899  29.2991

          k =-0.4201 0.4201-0.4201 (   592 PWs)   bands (ev):

    -3.3044   1.6329  10.9813  10.9813  22.3055  22.3055  23.2006  29.5008

          k = 0.5041-0.5041 0.5041 (   580 PWs)   bands (ev):

    -1.9827  -0.0063  10.8568  10.8568  22.3234  22.3234  23.2991  29.5492

          k = 0.0000 0.1680 0.0000 (   585 PWs)   bands (ev):

    -7.8106  12.7925  12.7925  13.1540  19.2262  20.5851  20.5851  28.1059

          k =-0.0840 0.2520-0.0840 (   582 PWs)   bands (ev):

    -7.3497  10.8076  11.9632  12.8014  19.5373  21.6895  21.7489  28.0155

          k =-0.1680 0.3360-0.1680 (   583 PWs)   bands (ev):

    -6.4996   8.0825  11.2218  12.1180  20.4152  22.6561  22.7464  27.9904

          k =-0.2520 0.4201-0.2520 (   594 PWs)   bands (ev):

    -5.2749   5.2610  10.7033  11.3485  21.2057  23.1589  23.3902  28.3063

          k =-0.3360 0.5041-0.3360 (   596 PWs)   bands (ev):

    -3.7140   2.5954  10.4577  10.6862  21.6596  23.1952  23.7476  28.9683

          k = 0.5881-0.4201 0.5881 (   591 PWs)   bands (ev):

    -2.0648   0.4287  10.2207  10.4941  21.9477  22.9819  23.8870  29.5066

          k = 0.5041-0.3360 0.5041 (   592 PWs)   bands (ev):

    -2.5692   1.0388   9.9997  10.7987  22.2460  22.6822  23.8298  29.5499

          k = 0.4201-0.2520 0.4201 (   592 PWs)   bands (ev):

    -4.2670   3.4592  10.0505  11.3390  22.2813  22.5230  23.5537  29.1233

          k = 0.3360-0.1680 0.3360 (   591 PWs)   bands (ev):

    -5.7236   6.2026  10.3831  12.0556  21.6386  22.5446  22.9815  28.6014

          k = 0.2520-0.0840 0.2520 (   580 PWs)   bands (ev):

    -6.8257   9.0270  10.9870  12.8300  20.7385  21.9408  22.1639  28.3366

          k = 0.1680-0.0000 0.1680 (   578 PWs)   bands (ev):

    -7.5468  11.4856  11.9353  13.4062  19.9477  20.8037  21.1683  28.2497

          k = 0.0000 0.3360 0.0000 (   584 PWs)   bands (ev):

    -7.0214  11.0744  11.0744  11.5801  18.7776  22.9580  22.9580  26.9975

          k =-0.0840 0.4201-0.0840 (   582 PWs)   bands (ev):

    -6.3036   9.0306  10.3002  11.0783  19.0524  24.1221  24.1270  26.0224

          k =-0.1680 0.5041-0.1680 (   591 PWs)   bands (ev):

    -5.2078   6.4334   9.7748  10.2950  19.8941  24.8298  24.8926  25.7929

          k =-0.2520 0.5881-0.2520 (   589 PWs)   bands (ev):

    -3.7623   3.8222   9.4234   9.5521  20.5571  24.9556  25.3263  26.6723

          k = 0.6721-0.3360 0.6721 (   588 PWs)   bands (ev):

    -2.0862   1.4830   8.6806   9.6449  20.9736  24.6692  25.5177  28.2743

          k = 0.5881-0.2520 0.5881 (   590 PWs)   bands (ev):

    -1.6028   0.9120   8.1739  10.0377  21.4219  24.1656  25.5023  29.4703

          k = 0.5041-0.1680 0.5041 (   589 PWs)   bands (ev):

    -3.2218   3.0311   7.9603  10.6868  21.9846  23.4897  25.2540  29.0429

          k = 0.4201-0.0840 0.4201 (   593 PWs)   bands (ev):

    -4.7658   5.6079   8.0801  11.5056  22.5074  22.5759  24.5779  28.1609

          k = 0.3360 0.0000 0.3360 (   594 PWs)   bands (ev):

    -5.9812   8.0195   8.7882  12.3247  21.5091  22.6462  23.3400  27.9899

          k = 0.0000 0.5041 0.0000 (   592 PWs)   bands (ev):

    -5.7195   9.3255   9.4754   9.4754  18.3053  24.2291  25.5921  25.5921

          k =-0.0840 0.5881-0.0840 (   593 PWs)   bands (ev):

    -4.7569   7.3152   8.8978   8.9110  18.6409  23.2634  26.6391  26.6735

          k =-0.1680 0.6721-0.1680 (   595 PWs)   bands (ev):

    -3.4385   5.0512   7.8880   8.6331  19.4277  23.6043  27.0345  27.2879

          k = 0.7561-0.2520 0.7561 (   598 PWs)   bands (ev):

    -1.8363   2.8093   6.8746   8.7017  19.9410  25.3889  26.8314  27.5542

          k = 0.6721-0.1680 0.6721 (   589 PWs)   bands (ev):

    -0.6215   1.3973   6.1027   9.0938  20.4161  26.2083  27.5756  27.8617

          k = 0.5881-0.0840 0.5881 (   591 PWs)   bands (ev):

    -1.8694   2.9397   5.6714   9.7678  21.0692  25.2452  27.4226  29.0578

          k = 0.5041 0.0000 0.5041 (   590 PWs)   bands (ev):

    -3.4567   5.0024   5.9104  10.6328  21.8552  23.9585  26.4367  28.1820

          k = 0.0000 0.6721 0.0000 (   576 PWs)   bands (ev):

    -3.9291   6.6362   8.2500   8.2500  18.0199  21.6088  28.1193  28.1193

          k =-0.0840 0.7561-0.0840 (   595 PWs)   bands (ev):

    -2.7442   5.1019   7.3156   7.9122  18.4739  21.0938  28.9158  29.0078

          k = 0.8401-0.1680 0.8401 (   594 PWs)   bands (ev):

    -1.2527   3.5345   5.8234   7.9148  19.1228  22.2547  28.9213  29.3971

          k = 0.7561-0.0840 0.7561 (   591 PWs)   bands (ev):

     0.2394   2.1597   4.5160   8.2556  19.5750  24.7886  28.2333  29.4698

          k = 0.6721 0.0000 0.6721 (   598 PWs)   bands (ev):

    -0.3469   2.7514   4.0264   8.9004  20.2099  26.9573  27.6430  29.2529

          k = 0.0000 0.8401 0.0000 (   600 PWs)   bands (ev):

    -1.6949   3.7490   7.4897   7.4897  18.0766  19.7395  30.1400  30.1400

          k = 0.9241-0.0840 0.9241 (   603 PWs)   bands (ev):

    -0.3297   2.3692   6.6569   7.4070  18.6256  19.7601  30.4262  30.5853

          k = 0.8401 0.0000 0.8401 (   598 PWs)   bands (ev):

     1.0663   1.3717   5.1705   7.6705  19.0197  21.8046  29.7441  30.4144

          k = 0.0000-1.0081 0.0000 (   588 PWs)   bands (ev):

     0.9076   0.9076   7.2326   7.2326  18.6061  18.6061  30.9713  30.9713

          k =-0.1680 0.3360-0.0000 (   585 PWs)   bands (ev):

    -6.7602   9.7167  10.3086  12.3860  19.7871  22.7606  22.9152  27.4661

          k =-0.2520 0.4201-0.0840 (   592 PWs)   bands (ev):

    -5.7870   7.2862   9.4611  11.6985  20.6724  23.2928  24.0844  27.1642

          k =-0.3360 0.5041-0.1680 (   592 PWs)   bands (ev):

    -4.4502   4.5906   9.0730  10.8922  21.4972  23.3185  24.8598  27.6830

          k = 0.5881-0.4201 0.7561 (   591 PWs)   bands (ev):

    -2.8148   2.0770   8.9533  10.2284  21.9047  23.1599  25.2358  28.7980

          k = 0.5041-0.3360 0.6721 (   592 PWs)   bands (ev):

    -1.5244   0.4851   8.9651   9.9456  22.0047  23.0811  25.3450  29.4592

          k =-0.1680 0.5041 0.0000 (   592 PWs)   bands (ev):

    -5.4631   7.9863   8.7661  10.4535  19.3608  24.6699  25.1498  25.5861

          k =-0.2520 0.5881-0.0840 (   594 PWs)   bands (ev):

    -4.2549   5.7889   8.0343   9.6736  20.2894  24.4267  25.4840  26.7077

          k = 0.6721-0.3360 0.8401 (   590 PWs)   bands (ev):

    -2.7235   3.3684   7.6682   9.0101  20.9708  24.5895  26.3163  27.3461

          k = 0.5881-0.2520 0.7561 (   588 PWs)   bands (ev):

    -1.1336   1.3484   7.2646   8.9015  21.3842  24.3906  27.2850  28.2896

          k = 0.5041-0.1680 0.6721 (   588 PWs)   bands (ev):

    -1.6240   1.9461   6.9068   9.3321  21.8663  23.8901  27.1580  28.9126

          k = 0.4201-0.0840 0.5881 (   592 PWs)   bands (ev):

    -3.2717   4.2211   6.8072  10.0867  22.4471  23.0803  26.6986  27.6216

          k = 0.3360 0.0000 0.5041 (   586 PWs)   bands (ev):

    -4.7004   6.4425   7.3193  10.9705  21.7413  23.1650  25.6549  26.8404

          k =-0.1680 0.6721-0.0000 (   591 PWs)   bands (ev):

    -3.6824   6.1623   7.5854   8.3987  19.0870  22.4516  27.1352  28.1543

          k = 0.7561-0.2520 0.9241 (   592 PWs)   bands (ev):

    -2.2740   4.4274   6.5747   7.8376  20.0192  22.9463  27.1382  29.0022

          k = 0.6721-0.1680 0.8401 (   592 PWs)   bands (ev):

    -0.6669   2.5542   5.5924   7.8720  20.5465  24.9406  26.8555  29.0853

          k = 0.5881-0.0840 0.7561 (   590 PWs)   bands (ev):

    -0.2688   2.1816   4.8898   8.3545  21.0638  25.8751  27.7699  28.5280

          k = 0.5041 0.0000 0.6721 (   594 PWs)   bands (ev):

    -1.7927   3.8096   4.8798   9.1451  21.7727  24.6277  27.7571  28.5162

          k = 0.8401-0.1680 1.0081 (   595 PWs)   bands (ev):

    -1.4686   3.7707   6.8737   7.1286  19.1326  20.6920  29.1781  30.0669

          k = 0.7561-0.0840 0.9241 (   592 PWs)   bands (ev):

     0.0591   2.5180   5.4267   7.1083  19.9224  22.0058  28.9477  30.0214

          k = 0.6721 0.0000 0.8401 (   597 PWs)   bands (ev):

     0.9151   2.0003   4.1601   7.5713  20.3874  24.7380  27.9988  29.2328

          k =-0.1680-1.0081-0.0000 (   592 PWs)   bands (ev):

     1.0825   1.0825   6.6934   6.6934  19.6260  19.6260  30.4471  30.4471

          k = 0.6721-0.3360 1.0081 (   593 PWs)   bands (ev):

    -2.9540   5.0506   6.2079   8.7845  21.6200  23.7523  25.7083  28.2738

          k = 0.5881-0.2520 0.9241 (   586 PWs)   bands (ev):

    -1.3816   3.2040   5.7745   7.9485  22.5235  23.8469  26.4270  28.9548

          k = 0.5041-0.1680 0.8401 (   584 PWs)   bands (ev):

    -0.1768   1.8027   5.7769   7.5919  22.5770  24.1076  27.9561  28.1338

          k = 0.6721-0.1680 1.0081 (   596 PWs)   bands (ev):

    -0.8187   3.5781   5.5960   6.6848  21.6929  22.9217  26.8877  29.6275

          k = 0.5881-0.0840 0.9241 (   596 PWs)   bands (ev):

     0.6473   2.4141   4.7690   6.3884  22.4688  24.6645  26.6344  28.3437

          k = 0.5041 0.0000 0.8401 (   592 PWs)   bands (ev):

     0.1235   2.8578   4.4586   6.9556  22.8954  24.8069  26.8623  27.9702

          k =-0.3360-1.0081 0.0000 (   600 PWs)   bands (ev):

     1.5168   1.5168   5.6393   5.6393  22.1075  22.1075  28.6643  28.6643

          k =-0.5041-1.0081 0.0000 (   604 PWs)   bands (ev):

     1.8089   1.8089   5.0767   5.0767  24.4107  24.4107  26.5730  26.5730

     highest occupied, lowest unoccupied level (ev):    13.7390   18.0199

!    total energy              =     -22.88901141 Ry
     Harris-Foulkes estimate   =     -22.88901141 Ry
     estimated scf accuracy    <          7.2E-18 Ry

     The total energy is the sum of the following terms:

     one-electron contribution =       8.28868928 Ry
     hartree contribution      =       1.88373016 Ry
     xc contribution           =      -7.13715660 Ry
     ewald contribution        =     -25.92427424 Ry

     convergence has been achieved in  10 iterations

     Forces acting on atoms (cartesian axes, Ry/au):

     atom    1 type  1   force =     0.00000000    0.00000000    0.00000000
     atom    2 type  1   force =    -0.00000000   -0.00000000   -0.00000000

     Total force =     0.000000     Total SCF correction =     0.000000


     Computing stress (Cartesian axis) and pressure

          total   stress  (Ry/bohr**3)                   (kbar)     P=    0.08
   0.00000051   0.00000000   0.00000000          0.08      0.00      0.00
   0.00000000   0.00000051   0.00000000          0.00      0.08      0.00
   0.00000000   0.00000000   0.00000051          0.00      0.00      0.08


     bfgs converged in   4 scf cycles and   2 bfgs steps
     (criteria: energy <  1.0E-04 Ry, force <  1.0E-03Ry/Bohr, cell <  5.0E-01kbar)

     End of BFGS Geometry Optimization

     Final enthalpy =     -22.8890114083 Ry
Begin final coordinates
     new unit-cell volume =     73.49575 a.u.^3 (    10.89095 Ang^3 )
     density =      3.66263 g/cm^3

CELL_PARAMETERS (alat=  6.70342551)
  -0.495960720   0.000000000   0.495960720
  -0.000000000   0.495960720   0.495960720
  -0.495960720   0.495960720  -0.000000000

ATOMIC_POSITIONS (crystal)
C        0.000000000  -0.000000000  -0.000000000
C        0.250000000   0.250000000   0.250000000
End final coordinates



     A final scf calculation at the relaxed structure.
     The G-vectors are recalculated for the final unit cell
     Results may differ from those at the preceding step.
 
     Parallelization info
     --------------------
     sticks:   dense  smooth     PW     G-vecs:    dense   smooth      PW
     Min           9       9      3                  115      115      21
     Max          10      10      4                  119      119      24
     Sum         367     367    121                 4645     4645     893
 


     bravais-lattice index     =            2
     lattice parameter (alat)  =       6.7034  a.u.
     unit-cell volume          =      73.4957 (a.u.)^3
     number of atoms/cell      =            2
     number of atomic types    =            1
     number of electrons       =         8.00
     number of Kohn-Sham states=            8
     kinetic-energy cutoff     =      60.0000  Ry
     charge density cutoff     =     240.0000  Ry
     convergence threshold     =      1.0E-17
     mixing beta               =       0.7000
     number of iterations used =            8  local-TF  mixing
     Exchange-correlation      = PZ ( 1  1  0  0 0 0)

     celldm(1)=   6.703426  celldm(2)=   0.000000  celldm(3)=   0.000000
     celldm(4)=   0.000000  celldm(5)=   0.000000  celldm(6)=   0.000000

     crystal axes: (cart. coord. in units of alat)
               a(1) = (  -0.495961   0.000000   0.495961 )  
               a(2) = (  -0.000000   0.495961   0.495961 )  
               a(3) = (  -0.495961   0.495961  -0.000000 )  

     reciprocal axes: (cart. coord. in units 2 pi/alat)
               b(1) = ( -1.008144 -1.008144  1.008144 )  
               b(2) = (  1.008144  1.008144  1.008144 )  
               b(3) = ( -1.008144  1.008144 -1.008144 )  


     PseudoPot. # 1 for  C read from file:
     ../C.pz-mt.fhi.UPF
     MD5 check sum: b7c38bc33a0cf75f44be89b84470f298
     Pseudo is Norm-conserving, Zval =  4.0
     Generated using FHI98PP, converted with fhi2upf.x v.5.0.2
     Using radial grid of  461 points,  2 beta functions with: 
                l(1) =   0
                l(2) =   1

     atomic species   valence    mass     pseudopotential
        C              4.00    12.01100      C( 1.00)

     48 Sym. Ops., with inversion, found (24 have fractional translation)



   Cartesian axes

     site n.     atom                  positions (alat units)
         1           C   tau(   1) = (  -0.0000000  -0.0000000   0.0000000  )
         2           C   tau(   2) = (  -0.2479804   0.2479804   0.2479804  )

     number of k points=    72
                       cart. coord. in units 2pi/alat
        k(    1) = (   0.0000000   0.0000000   0.0000000), wk =   0.0011574
        k(    2) = (  -0.0840120   0.0840120  -0.0840120), wk =   0.0092593
        k(    3) = (  -0.1680241   0.1680241  -0.1680241), wk =   0.0092593
        k(    4) = (  -0.2520361   0.2520361  -0.2520361), wk =   0.0092593
        k(    5) = (  -0.3360481   0.3360481  -0.3360481), wk =   0.0092593
        k(    6) = (  -0.4200601   0.4200601  -0.4200601), wk =   0.0092593
        k(    7) = (   0.5040722  -0.5040722   0.5040722), wk =   0.0046296
        k(    8) = (   0.0000000   0.1680241   0.0000000), wk =   0.0069444
        k(    9) = (  -0.0840120   0.2520361  -0.0840120), wk =   0.0277778
        k(   10) = (  -0.1680241   0.3360481  -0.1680241), wk =   0.0277778
        k(   11) = (  -0.2520361   0.4200601  -0.2520361), wk =   0.0277778
        k(   12) = (  -0.3360481   0.5040722  -0.3360481), wk =   0.0277778
        k(   13) = (   0.5880842  -0.4200601   0.5880842), wk =   0.0277778
        k(   14) = (   0.5040722  -0.3360481   0.5040722), wk =   0.0277778
        k(   15) = (   0.4200601  -0.2520361   0.4200601), wk =   0.0277778
        k(   16) = (   0.3360481  -0.1680241   0.3360481), wk =   0.0277778
        k(   17) = (   0.2520361  -0.0840120   0.2520361), wk =   0.0277778
        k(   18) = (   0.1680241  -0.0000000   0.1680241), wk =   0.0138889
        k(   19) = (   0.0000000   0.3360481   0.0000000), wk =   0.0069444
        k(   20) = (  -0.0840120   0.4200601  -0.0840120), wk =   0.0277778
        k(   21) = (  -0.1680241   0.5040722  -0.1680241), wk =   0.0277778
        k(   22) = (  -0.2520361   0.5880842  -0.2520361), wk =   0.0277778
        k(   23) = (   0.6720962  -0.3360481   0.6720962), wk =   0.0277778
        k(   24) = (   0.5880842  -0.2520361   0.5880842), wk =   0.0277778
        k(   25) = (   0.5040722  -0.1680241   0.5040722), wk =   0.0277778
        k(   26) = (   0.4200601  -0.0840120   0.4200601), wk =   0.0277778
        k(   27) = (   0.3360481   0.0000000   0.3360481), wk =   0.0138889
        k(   28) = (   0.0000000   0.5040722   0.0000000), wk =   0.0069444
        k(   29) = (  -0.0840120   0.5880842  -0.0840120), wk =   0.0277778
        k(   30) = (  -0.1680241   0.6720962  -0.1680241), wk =   0.0277778
        k(   31) = (   0.7561083  -0.2520361   0.7561083), wk =   0.0277778
        k(   32) = (   0.6720962  -0.1680241   0.6720962), wk =   0.0277778
        k(   33) = (   0.5880842  -0.0840120   0.5880842), wk =   0.0277778
        k(   34) = (   0.5040722   0.0000000   0.5040722), wk =   0.0138889
        k(   35) = (   0.0000000   0.6720962   0.0000000), wk =   0.0069444
        k(   36) = (  -0.0840120   0.7561083  -0.0840120), wk =   0.0277778
        k(   37) = (   0.8401203  -0.1680241   0.8401203), wk =   0.0277778
        k(   38) = (   0.7561083  -0.0840120   0.7561083), wk =   0.0277778
        k(   39) = (   0.6720962   0.0000000   0.6720962), wk =   0.0138889
        k(   40) = (   0.0000000   0.8401203   0.0000000), wk =   0.0069444
        k(   41) = (   0.9241323  -0.0840120   0.9241323), wk =   0.0277778
        k(   42) = (   0.8401203   0.0000000   0.8401203), wk =   0.0138889
        k(   43) = (   0.0000000  -1.0081444   0.0000000), wk =   0.0034722
[...]
        k(   63) = (   0.6720962   0.0000000   0.8401203), wk =   0.0277778
        k(   64) = (  -0.1680241  -1.0081444  -0.0000000), wk =   0.0138889
        k(   65) = (   0.6720962  -0.3360481   1.0081444), wk =   0.0277778
        k(   66) = (   0.5880842  -0.2520361   0.9241323), wk =   0.0555556
        k(   67) = (   0.5040722  -0.1680241   0.8401203), wk =   0.0277778
        k(   68) = (   0.6720962  -0.1680241   1.0081444), wk =   0.0277778
        k(   69) = (   0.5880842  -0.0840120   0.9241323), wk =   0.0555556
        k(   70) = (   0.5040722   0.0000000   0.8401203), wk =   0.0277778
        k(   71) = (  -0.3360481  -1.0081444   0.0000000), wk =   0.0138889
        k(   72) = (  -0.5040722  -1.0081444   0.0000000), wk =   0.0069444

     Dense  grid:     4645 G-vectors     FFT dimensions: (  24,  24,  24)

     Estimated max dynamical RAM per process >       0.26MB

     Estimated total allocated dynamical RAM >      10.59MB
     Message from routine sym_rho_init:
     some processors have no G-vectors for symmetrization
     Message from routine sym_rho_init:
     some processors have no G-vectors for symmetrization
     Message from routine sym_rho_init:
     some processors have no G-vectors for symmetrization
     Message from routine sym_rho_init:
     some processors have no G-vectors for symmetrization
     Message from routine sym_rho_init:
     some processors have no G-vectors for symmetrization
     Message from routine sym_rho_init:
     some processors have no G-vectors for symmetrization

     Initial potential from superposition of free atoms

     starting charge    7.99993, renormalised to    8.00000
     Starting wfc are   18 randomized atomic wfcs

     Writing output data file c.save

     total cpu time spent up to now is       32.3 secs

     per-process dynamical memory:    27.8 Mb

     Self-consistent Calculation

     iteration #  1     ecut=    60.00 Ry     beta=0.70
     Davidson diagonalization with overlap
     ethr =  1.00E-06,  avg # of iterations =  5.7

     total cpu time spent up to now is       33.9 secs

     total energy              =     -22.89640168 Ry
     Harris-Foulkes estimate   =     -22.94964689 Ry
     estimated scf accuracy    <       0.13702220 Ry

     iteration #  2     ecut=    60.00 Ry     beta=0.70
     Davidson diagonalization with overlap
     ethr =  1.71E-03,  avg # of iterations =  1.3

     total cpu time spent up to now is       34.4 secs

     total energy              =     -22.88557479 Ry
     Harris-Foulkes estimate   =     -22.90064816 Ry
     estimated scf accuracy    <       0.02779350 Ry

     iteration #  3     ecut=    60.00 Ry     beta=0.70
     Davidson diagonalization with overlap
     ethr =  3.47E-04,  avg # of iterations =  2.1

     total cpu time spent up to now is       35.1 secs

     total energy              =     -22.88889444 Ry
     Harris-Foulkes estimate   =     -22.88885129 Ry
     estimated scf accuracy    <       0.00013034 Ry

     iteration #  4     ecut=    60.00 Ry     beta=0.70
     Davidson diagonalization with overlap
     ethr =  1.63E-06,  avg # of iterations =  2.1

     total cpu time spent up to now is       35.9 secs

     total energy              =     -22.88891995 Ry
     Harris-Foulkes estimate   =     -22.88892672 Ry
     estimated scf accuracy    <       0.00001105 Ry

     iteration #  5     ecut=    60.00 Ry     beta=0.70
     Davidson diagonalization with overlap
     ethr =  1.38E-07,  avg # of iterations =  2.1

     total cpu time spent up to now is       36.6 secs

     total energy              =     -22.88892117 Ry
     Harris-Foulkes estimate   =     -22.88892131 Ry
     estimated scf accuracy    <       0.00000034 Ry

     iteration #  6     ecut=    60.00 Ry     beta=0.70
     Davidson diagonalization with overlap
     ethr =  4.26E-09,  avg # of iterations =  2.0

     total cpu time spent up to now is       37.2 secs

     total energy              =     -22.88892119 Ry
     Harris-Foulkes estimate   =     -22.88892120 Ry
     estimated scf accuracy    <       0.00000001 Ry

     iteration #  7     ecut=    60.00 Ry     beta=0.70
     Davidson diagonalization with overlap
     ethr =  1.61E-10,  avg # of iterations =  2.7

     total cpu time spent up to now is       38.1 secs

     total energy              =     -22.88892120 Ry
     Harris-Foulkes estimate   =     -22.88892120 Ry
     estimated scf accuracy    <          5.9E-11 Ry

     iteration #  8     ecut=    60.00 Ry     beta=0.70
     Davidson diagonalization with overlap
     ethr =  7.40E-13,  avg # of iterations =  2.4

     total cpu time spent up to now is       38.9 secs

     total energy              =     -22.88892120 Ry
     Harris-Foulkes estimate   =     -22.88892120 Ry
     estimated scf accuracy    <          3.9E-12 Ry

     iteration #  9     ecut=    60.00 Ry     beta=0.70
     Davidson diagonalization with overlap
     ethr =  1.00E-13,  avg # of iterations =  1.6

     total cpu time spent up to now is       39.5 secs

     total energy              =     -22.88892120 Ry
     Harris-Foulkes estimate   =     -22.88892120 Ry
     estimated scf accuracy    <          2.5E-13 Ry

     iteration # 10     ecut=    60.00 Ry     beta=0.70
     Davidson diagonalization with overlap
     ethr =  1.00E-13,  avg # of iterations =  1.0

     total cpu time spent up to now is       40.0 secs

     total energy              =     -22.88892120 Ry
     Harris-Foulkes estimate   =     -22.88892120 Ry
     estimated scf accuracy    <          9.1E-15 Ry

     iteration # 11     ecut=    60.00 Ry     beta=0.70
     Davidson diagonalization with overlap
     ethr =  1.00E-13,  avg # of iterations =  1.0

     total cpu time spent up to now is       40.4 secs

     total energy              =     -22.88892120 Ry
     Harris-Foulkes estimate   =     -22.88892120 Ry
     estimated scf accuracy    <          8.1E-16 Ry

     iteration # 12     ecut=    60.00 Ry     beta=0.70
     Davidson diagonalization with overlap
     ethr =  1.00E-13,  avg # of iterations =  1.0

     total cpu time spent up to now is       40.9 secs

     total energy              =     -22.88892120 Ry
     Harris-Foulkes estimate   =     -22.88892120 Ry
     estimated scf accuracy    <          1.2E-17 Ry

     iteration # 13     ecut=    60.00 Ry     beta=0.70
     Davidson diagonalization with overlap
     ethr =  1.00E-13,  avg # of iterations =  1.0

     total cpu time spent up to now is       41.4 secs

     End of self-consistent calculation

          k = 0.0000 0.0000 0.0000 (   561 PWs)   bands (ev):

    -8.0750  13.7392  13.7392  13.7392  19.4142  19.4142  19.4142  28.0754

          k =-0.0840 0.0840-0.0840 (   573 PWs)   bands (ev):

    -7.8765  12.4975  13.4048  13.4048  19.8516  19.8516  20.1768  28.1813

          k =-0.1680 0.1680-0.1680 (   570 PWs)   bands (ev):

    -7.2838   9.9356  12.6816  12.6816  20.7976  20.7976  21.3940  28.4889

          k =-0.2520 0.2520-0.2520 (   576 PWs)   bands (ev):

    -6.3049   7.0574  11.9381  11.9381  21.6710  21.6710  22.3146  28.9161

          k =-0.3360 0.3360-0.3360 (   589 PWs)   bands (ev):

    -4.9583   4.2221  11.3493  11.3493  22.1564  22.1564  22.8899  29.2992

          k =-0.4201 0.4201-0.4201 (   589 PWs)   bands (ev):

    -3.3045   1.6329  10.9812  10.9812  22.3054  22.3054  23.2008  29.5007

          k = 0.5041-0.5041 0.5041 (   580 PWs)   bands (ev):

    -1.9827  -0.0064  10.8567  10.8567  22.3234  22.3234  23.2991  29.5491

          k = 0.0000 0.1680 0.0000 (   565 PWs)   bands (ev):

    -7.8104  12.7925  12.7925  13.1540  19.2261  20.5850  20.5850  28.1078

          k =-0.0840 0.2520-0.0840 (   568 PWs)   bands (ev):

    -7.3494  10.8076  11.9632  12.8014  19.5374  21.6895  21.7490  28.0161

          k =-0.1680 0.3360-0.1680 (   575 PWs)   bands (ev):

    -6.4995   8.0825  11.2217  12.1179  20.4151  22.6561  22.7466  27.9905

          k =-0.2520 0.4201-0.2520 (   580 PWs)   bands (ev):

    -5.2746   5.2612  10.7033  11.3485  21.2058  23.1589  23.3905  28.3064

          k =-0.3360 0.5041-0.3360 (   585 PWs)   bands (ev):

    -3.7138   2.5954  10.4576  10.6862  21.6596  23.1951  23.7480  28.9684

          k = 0.5881-0.4201 0.5881 (   579 PWs)   bands (ev):

    -2.0644   0.4287  10.2206  10.4940  21.9477  22.9819  23.8872  29.5066

          k = 0.5041-0.3360 0.5041 (   577 PWs)   bands (ev):

    -2.5687   1.0388   9.9996  10.7986  22.2460  22.6822  23.8302  29.5500

          k = 0.4201-0.2520 0.4201 (   581 PWs)   bands (ev):

    -4.2668   3.4593  10.0504  11.3389  22.2813  22.5230  23.5540  29.1235

          k = 0.3360-0.1680 0.3360 (   580 PWs)   bands (ev):

    -5.7234   6.2027  10.3831  12.0556  21.6386  22.5447  22.9818  28.6016

          k = 0.2520-0.0840 0.2520 (   570 PWs)   bands (ev):

    -6.8254   9.0270  10.9870  12.8299  20.7385  21.9409  22.1640  28.3369

          k = 0.1680-0.0000 0.1680 (   565 PWs)   bands (ev):

    -7.5468  11.4857  11.9353  13.4062  19.9476  20.8037  21.1683  28.2509

          k = 0.0000 0.3360 0.0000 (   572 PWs)   bands (ev):

    -7.0212  11.0744  11.0744  11.5801  18.7777  22.9580  22.9580  26.9980

          k =-0.0840 0.4201-0.0840 (   576 PWs)   bands (ev):

    -6.3035   9.0306  10.3002  11.0783  19.0524  24.1221  24.1269  26.0225

          k =-0.1680 0.5041-0.1680 (   579 PWs)   bands (ev):

    -5.2077   6.4335   9.7747  10.2951  19.8942  24.8297  24.8929  25.7932

          k =-0.2520 0.5881-0.2520 (   583 PWs)   bands (ev):

    -3.7623   3.8223   9.4234   9.5521  20.5570  24.9555  25.3265  26.6724

          k = 0.6721-0.3360 0.6721 (   574 PWs)   bands (ev):

    -2.0858   1.4830   8.6806   9.6449  20.9737  24.6692  25.5180  28.2744

          k = 0.5881-0.2520 0.5881 (   576 PWs)   bands (ev):

    -1.6024   0.9121   8.1739  10.0376  21.4219  24.1656  25.5025  29.4703

          k = 0.5041-0.1680 0.5041 (   583 PWs)   bands (ev):

    -3.2217   3.0312   7.9603  10.6867  21.9847  23.4896  25.2542  29.0429

          k = 0.4201-0.0840 0.4201 (   576 PWs)   bands (ev):

    -4.7655   5.6080   8.0802  11.5056  22.5076  22.5758  24.5781  28.1615

          k = 0.3360 0.0000 0.3360 (   572 PWs)   bands (ev):

    -5.9807   8.0197   8.7883  12.3247  21.5091  22.6465  23.3403  27.9903

          k = 0.0000 0.5041 0.0000 (   576 PWs)   bands (ev):

    -5.7194   9.3258   9.4753   9.4753  18.3055  24.2294  25.5921  25.5921

          k =-0.0840 0.5881-0.0840 (   576 PWs)   bands (ev):

    -4.7567   7.3155   8.8978   8.9110  18.6410  23.2637  26.6391  26.6737

          k =-0.1680 0.6721-0.1680 (   583 PWs)   bands (ev):

    -3.4383   5.0513   7.8881   8.6331  19.4278  23.6044  27.0345  27.2880

          k = 0.7561-0.2520 0.7561 (   579 PWs)   bands (ev):

    -1.8361   2.8095   6.8748   8.7017  19.9414  25.3890  26.8313  27.5549

          k = 0.6721-0.1680 0.6721 (   578 PWs)   bands (ev):

    -0.6213   1.3974   6.1028   9.0938  20.4163  26.2082  27.5756  27.8618

          k = 0.5881-0.0840 0.5881 (   579 PWs)   bands (ev):

    -1.8693   2.9398   5.6715   9.7677  21.0693  25.2451  27.4231  29.0579

          k = 0.5041 0.0000 0.5041 (   574 PWs)   bands (ev):

    -3.4563   5.0026   5.9104  10.6327  21.8554  23.9584  26.4369  28.1826

          k = 0.0000 0.6721 0.0000 (   576 PWs)   bands (ev):

    -3.9291   6.6362   8.2500   8.2500  18.0199  21.6088  28.1192  28.1192

          k =-0.0840 0.7561-0.0840 (   583 PWs)   bands (ev):

    -2.7440   5.1021   7.3156   7.9122  18.4741  21.0940  28.9158  29.0078

          k = 0.8401-0.1680 0.8401 (   576 PWs)   bands (ev):

    -1.2523   3.5347   5.8234   7.9148  19.1231  22.2549  28.9213  29.3972

          k = 0.7561-0.0840 0.7561 (   578 PWs)   bands (ev):

     0.2395   2.1600   4.5160   8.2555  19.5753  24.7886  28.2332  29.4702

          k = 0.6721 0.0000 0.6721 (   572 PWs)   bands (ev):

    -0.3461   2.7517   4.0265   8.9004  20.2102  26.9574  27.6433  29.2532

          k = 0.0000 0.8401 0.0000 (   576 PWs)   bands (ev):

    -1.6945   3.7494   7.4896   7.4896  18.0773  19.7398  30.1400  30.1400

          k = 0.9241-0.0840 0.9241 (   584 PWs)   bands (ev):

    -0.3292   2.3694   6.6569   7.4069  18.6260  19.7603  30.4263  30.5854

          k = 0.8401 0.0000 0.8401 (   582 PWs)   bands (ev):

     1.0668   1.3719   5.1705   7.6705  19.0198  21.8049  29.7441  30.4143

          k = 0.0000-1.0081 0.0000 (   588 PWs)   bands (ev):

     0.9076   0.9076   7.2325   7.2325  18.6061  18.6061  30.9712  30.9712

          k =-0.1680 0.3360-0.0000 (   571 PWs)   bands (ev):

    -6.7599   9.7167  10.3086  12.3860  19.7873  22.7605  22.9152  27.4665

          k =-0.2520 0.4201-0.0840 (   576 PWs)   bands (ev):

    -5.7868   7.2864   9.4611  11.6985  20.6725  23.2929  24.0845  27.1645

          k =-0.3360 0.5041-0.1680 (   581 PWs)   bands (ev):

    -4.4500   4.5907   9.0730  10.8921  21.4972  23.3186  24.8601  27.6832

          k = 0.5881-0.4201 0.7561 (   580 PWs)   bands (ev):

    -2.8144   2.0770   8.9533  10.2283  21.9047  23.1599  25.2360  28.7980

          k = 0.5041-0.3360 0.6721 (   576 PWs)   bands (ev):

    -1.5238   0.4851   8.9651   9.9455  22.0048  23.0812  25.3451  29.4593

          k =-0.1680 0.5041 0.0000 (   576 PWs)   bands (ev):

    -5.4628   7.9865   8.7661  10.4534  19.3610  24.6699  25.1503  25.5861

          k =-0.2520 0.5881-0.0840 (   578 PWs)   bands (ev):

    -4.2547   5.7891   8.0343   9.6736  20.2895  24.4267  25.4844  26.7078

          k = 0.6721-0.3360 0.8401 (   571 PWs)   bands (ev):

    -2.7231   3.3686   7.6683   9.0101  20.9709  24.5896  26.3167  27.3464

          k = 0.5881-0.2520 0.7561 (   573 PWs)   bands (ev):

    -1.1332   1.3485   7.2646   8.9015  21.3843  24.3908  27.2855  28.2896

          k = 0.5041-0.1680 0.6721 (   577 PWs)   bands (ev):

    -1.6237   1.9462   6.9068   9.3321  21.8663  23.8902  27.1583  28.9127

          k = 0.4201-0.0840 0.5881 (   575 PWs)   bands (ev):

    -3.2714   4.2213   6.8072  10.0866  22.4472  23.0804  26.6989  27.6220

          k = 0.3360 0.0000 0.5041 (   582 PWs)   bands (ev):

    -4.7003   6.4424   7.3193  10.9704  21.7413  23.1650  25.6548  26.8405

          k =-0.1680 0.6721-0.0000 (   581 PWs)   bands (ev):

    -3.6823   6.1625   7.5854   8.3987  19.0871  22.4518  27.1352  28.1543

          k = 0.7561-0.2520 0.9241 (   576 PWs)   bands (ev):

    -2.2736   4.4277   6.5747   7.8375  20.0194  22.9465  27.1383  29.0022

          k = 0.6721-0.1680 0.8401 (   577 PWs)   bands (ev):

    -0.6667   2.5544   5.5925   7.8720  20.5467  24.9407  26.8557  29.0854

          k = 0.5881-0.0840 0.7561 (   576 PWs)   bands (ev):

    -0.2685   2.1818   4.8899   8.3544  21.0640  25.8751  27.7700  28.5281

          k = 0.5041 0.0000 0.6721 (   571 PWs)   bands (ev):

    -1.7923   3.8099   4.8799   9.1451  21.7730  24.6278  27.7576  28.5167

          k = 0.8401-0.1680 1.0081 (   581 PWs)   bands (ev):

    -1.4683   3.7709   6.8737   7.1286  19.1329  20.6922  29.1781  30.0669

          k = 0.7561-0.0840 0.9241 (   582 PWs)   bands (ev):

     0.0593   2.5181   5.4267   7.1082  19.9225  22.0059  28.9477  30.0213

          k = 0.6721 0.0000 0.8401 (   580 PWs)   bands (ev):

     0.9153   2.0007   4.1601   7.5713  20.3878  24.7381  27.9989  29.2332

          k =-0.1680-1.0081-0.0000 (   582 PWs)   bands (ev):

     1.0827   1.0827   6.6934   6.6934  19.6261  19.6261  30.4470  30.4470

          k = 0.6721-0.3360 1.0081 (   574 PWs)   bands (ev):

    -2.9537   5.0509   6.2079   8.7846  21.6201  23.7523  25.7089  28.2739

          k = 0.5881-0.2520 0.9241 (   574 PWs)   bands (ev):

    -1.3813   3.2041   5.7745   7.9485  22.5236  23.8470  26.4272  28.9549

          k = 0.5041-0.1680 0.8401 (   574 PWs)   bands (ev):

    -0.1764   1.8028   5.7769   7.5919  22.5770  24.1076  27.9562  28.1338

          k = 0.6721-0.1680 1.0081 (   572 PWs)   bands (ev):

    -0.8181   3.5785   5.5960   6.6848  21.6933  22.9218  26.8879  29.6276

          k = 0.5881-0.0840 0.9241 (   581 PWs)   bands (ev):

     0.6474   2.4145   4.7690   6.3884  22.4689  24.6645  26.6346  28.3439

          k = 0.5041 0.0000 0.8401 (   574 PWs)   bands (ev):

     0.1238   2.8582   4.4586   6.9556  22.8955  24.8069  26.8625  27.9707

          k =-0.3360-1.0081 0.0000 (   584 PWs)   bands (ev):

     1.5171   1.5171   5.6393   5.6393  22.1076  22.1076  28.6645  28.6645

          k =-0.5041-1.0081 0.0000 (   560 PWs)   bands (ev):

     1.8100   1.8100   5.0767   5.0767  24.4108  24.4108  26.5739  26.5739

     highest occupied, lowest unoccupied level (ev):    13.7392   18.0199

!    total energy              =     -22.88892120 Ry
     Harris-Foulkes estimate   =     -22.88892120 Ry
     estimated scf accuracy    <          2.8E-20 Ry

     The total energy is the sum of the following terms:

     one-electron contribution =       8.28881181 Ry
     hartree contribution      =       1.88370251 Ry
     xc contribution           =      -7.13716127 Ry
     ewald contribution        =     -25.92427424 Ry

     convergence has been achieved in  13 iterations

     Forces acting on atoms (cartesian axes, Ry/au):

     atom    1 type  1   force =     0.00000000    0.00000000   -0.00000000
     atom    2 type  1   force =    -0.00000000   -0.00000000    0.00000000

     Total force =     0.000000     Total SCF correction =     0.000000


     Computing stress (Cartesian axis) and pressure

          total   stress  (Ry/bohr**3)                   (kbar)     P=   -1.08
  -0.00000737   0.00000000  -0.00000000         -1.08      0.00     -0.00
   0.00000000  -0.00000737  -0.00000000          0.00     -1.08     -0.00
  -0.00000000  -0.00000000  -0.00000737         -0.00     -0.00     -1.08


     Writing output data file c.save
 
     init_run     :      0.80s CPU      1.24s WALL (       2 calls)
     electrons    :     38.20s CPU     39.03s WALL (       5 calls)
     update_pot   :      0.01s CPU      0.02s WALL (       3 calls)
     forces       :      0.05s CPU      0.06s WALL (       5 calls)
     stress       :      0.06s CPU      0.07s WALL (       5 calls)

     Called by init_run:
     wfcinit      :      0.76s CPU      0.91s WALL (       2 calls)
     potinit      :      0.01s CPU      0.03s WALL (       2 calls)

     Called by electrons:
     c_bands      :     37.04s CPU     37.73s WALL (      57 calls)
     sum_band     :      1.06s CPU      1.11s WALL (      57 calls)
     v_of_rho     :      0.01s CPU      0.02s WALL (      61 calls)
     mix_rho      :      0.06s CPU      0.07s WALL (      57 calls)

     Called by c_bands:
     init_us_2    :      0.07s CPU      0.07s WALL (    9072 calls)
     cegterg      :     36.74s CPU     37.42s WALL (    4104 calls)

     Called by sum_band:

     Called by *egterg:
     h_psi        :      6.26s CPU      6.46s WALL (   12312 calls)
     g_psi        :      0.01s CPU      0.01s WALL (    8064 calls)
     cdiaghg      :     20.62s CPU     20.95s WALL (   11880 calls)

     Called by h_psi:
     h_psi:pot    :      6.23s CPU      6.43s WALL (   12312 calls)
     h_psi:calbec :      0.40s CPU      0.42s WALL (   12312 calls)
     vloc_psi     :      5.71s CPU      5.88s WALL (   12312 calls)
     add_vuspsi   :      0.08s CPU      0.09s WALL (   12312 calls)

     General routines
     calbec       :      0.42s CPU      0.44s WALL (   14112 calls)
     fft          :      0.02s CPU      0.25s WALL (     269 calls)
     ffts         :      0.02s CPU      0.02s WALL (     599 calls)
     fftw         :      6.33s CPU      6.54s WALL (  204748 calls)
 
     Parallel routines
     fft_scatter  :      5.11s CPU      5.29s WALL (  205616 calls)
 
     PWSCF        :    39.84s CPU        42.24s WALL

 
   This run was terminated on:  21:55:10  28Dec2020            

=------------------------------------------------------------------------------=
   JOB DONE.
=------------------------------------------------------------------------------=
