
     Program PWSCF v.6.1 (svn rev. 13369) starts on 29Dec2020 at 11:10:53 

     This program is part of the open-source Quantum ESPRESSO suite
     for quantum simulation of materials; please cite
         "P. Giannozzi et al., J. Phys.:Condens. Matter 21 395502 (2009);
          URL http://www.quantum-espresso.org", 
     in publications or presentations arising from this work. More details at
     http://www.quantum-espresso.org/quote

     Parallel version (MPI & OpenMP), running on      40 processor cores
     Number of MPI processes:                40
     Threads/MPI process:                     1
     R & G space division:  proc/nbgrp/npool/nimage =      40
     Waiting for input...
     Reading input from standard input

     Current dimensions of program PWSCF are:
     Max number of different atomic species (ntypx) = 10
     Max number of k-points (npk) =  40000
     Max angular momentum in pseudopotentials (lmaxx) =  3

     IMPORTANT: XC functional enforced from input :
     Exchange-correlation      = PBE ( 1  4  3  4 0 0)
     Any further DFT definition will be discarded
     Please, verify this is what you really want


     Subspace diagonalization in iterative solution of the eigenvalue problem:
     one sub-group per band group will be used
     scalapack distributed-memory algorithm (size of sub-group:  4*  4 procs)

 
     Parallelization info
     --------------------
     sticks:   dense  smooth     PW     G-vecs:    dense   smooth      PW
     Min           9       9      3                  116      116      21
     Max          10      10      4                  119      119      24
     Sum         367     367    121                 4693     4693     893
 


     bravais-lattice index     =            2
     lattice parameter (alat)  =       6.7034  a.u.
     unit-cell volume          =      75.3061 (a.u.)^3
     number of atoms/cell      =            2
     number of atomic types    =            1
     number of electrons       =         8.00
     number of Kohn-Sham states=            8
     kinetic-energy cutoff     =      60.0000  Ry
     charge density cutoff     =     240.0000  Ry
     convergence threshold     =      1.0E-15
     mixing beta               =       0.7000
     number of iterations used =            8  local-TF  mixing
     Exchange-correlation      = PBE ( 1  4  3  4 0 0)
     nstep                     =           50


     celldm(1)=   6.703426  celldm(2)=   0.000000  celldm(3)=   0.000000
     celldm(4)=   0.000000  celldm(5)=   0.000000  celldm(6)=   0.000000

     crystal axes: (cart. coord. in units of alat)
               a(1) = (  -0.500000   0.000000   0.500000 )  
               a(2) = (   0.000000   0.500000   0.500000 )  
               a(3) = (  -0.500000   0.500000   0.000000 )  

     reciprocal axes: (cart. coord. in units 2 pi/alat)
               b(1) = ( -1.000000 -1.000000  1.000000 )  
               b(2) = (  1.000000  1.000000  1.000000 )  
               b(3) = ( -1.000000  1.000000 -1.000000 )  


     PseudoPot. # 1 for C  read from file:
     ../C_ONCV_PBE-1.0.upf
     MD5 check sum: 40f8c33130f0afa4272e9dcc1c4fb0df
     Pseudo is Norm-conserving, Zval =  4.0
     Generated using ONCVPSP code by D. R. Hamann
     Using radial grid of  602 points,  4 beta functions with: 
                l(1) =   0
                l(2) =   0
                l(3) =   1
                l(4) =   1

     atomic species   valence    mass     pseudopotential
        C              4.00    12.01100     C ( 1.00)

     48 Sym. Ops., with inversion, found (24 have fractional translation)



   Cartesian axes

     site n.     atom                  positions (alat units)
         1           C   tau(   1) = (   0.0000000   0.0000000   0.0000000  )
         2           C   tau(   2) = (  -0.2500000   0.2500000   0.2500000  )

     number of k points=    29
                       cart. coord. in units 2pi/alat
        k(    1) = (   0.0000000   0.0000000   0.0000000), wk =   0.0039062
        k(    2) = (  -0.1250000   0.1250000  -0.1250000), wk =   0.0312500
        k(    3) = (  -0.2500000   0.2500000  -0.2500000), wk =   0.0312500
        k(    4) = (  -0.3750000   0.3750000  -0.3750000), wk =   0.0312500
        k(    5) = (   0.5000000  -0.5000000   0.5000000), wk =   0.0156250
        k(    6) = (   0.0000000   0.2500000   0.0000000), wk =   0.0234375
        k(    7) = (  -0.1250000   0.3750000  -0.1250000), wk =   0.0937500
        k(    8) = (  -0.2500000   0.5000000  -0.2500000), wk =   0.0937500
        k(    9) = (   0.6250000  -0.3750000   0.6250000), wk =   0.0937500
        k(   10) = (   0.5000000  -0.2500000   0.5000000), wk =   0.0937500
        k(   11) = (   0.3750000  -0.1250000   0.3750000), wk =   0.0937500
        k(   12) = (   0.2500000   0.0000000   0.2500000), wk =   0.0468750
        k(   13) = (   0.0000000   0.5000000   0.0000000), wk =   0.0234375
        k(   14) = (  -0.1250000   0.6250000  -0.1250000), wk =   0.0937500
        k(   15) = (   0.7500000  -0.2500000   0.7500000), wk =   0.0937500
        k(   16) = (   0.6250000  -0.1250000   0.6250000), wk =   0.0937500
        k(   17) = (   0.5000000   0.0000000   0.5000000), wk =   0.0468750
        k(   18) = (   0.0000000   0.7500000   0.0000000), wk =   0.0234375
        k(   19) = (   0.8750000  -0.1250000   0.8750000), wk =   0.0937500
        k(   20) = (   0.7500000   0.0000000   0.7500000), wk =   0.0468750
        k(   21) = (   0.0000000  -1.0000000   0.0000000), wk =   0.0117188
        k(   22) = (  -0.2500000   0.5000000   0.0000000), wk =   0.0937500
        k(   23) = (   0.6250000  -0.3750000   0.8750000), wk =   0.1875000
        k(   24) = (   0.5000000  -0.2500000   0.7500000), wk =   0.0937500
        k(   25) = (   0.7500000  -0.2500000   1.0000000), wk =   0.0937500
        k(   26) = (   0.6250000  -0.1250000   0.8750000), wk =   0.1875000
        k(   27) = (   0.5000000   0.0000000   0.7500000), wk =   0.0937500
        k(   28) = (  -0.2500000  -1.0000000   0.0000000), wk =   0.0468750
        k(   29) = (  -0.5000000  -1.0000000   0.0000000), wk =   0.0234375

     Dense  grid:     4693 G-vectors     FFT dimensions: (  24,  24,  24)

     Estimated max dynamical RAM per process >       0.20MB

     Estimated total allocated dynamical RAM >       7.81MB
     Message from routine sym_rho_init:
     some processors have no G-vectors for symmetrization
     Message from routine sym_rho_init:
     some processors have no G-vectors for symmetrization
     Message from routine sym_rho_init:
     some processors have no G-vectors for symmetrization
     Message from routine sym_rho_init:
     some processors have no G-vectors for symmetrization
     Message from routine sym_rho_init:
     some processors have no G-vectors for symmetrization
     Message from routine sym_rho_init:
     some processors have no G-vectors for symmetrization
     Message from routine sym_rho_init:
     some processors have no G-vectors for symmetrization

     Initial potential from superposition of free atoms

     starting charge    7.98607, renormalised to    8.00000
     Starting wfc are random

     total cpu time spent up to now is        1.7 secs

     per-process dynamical memory:    18.6 Mb

     Self-consistent Calculation

     iteration #  1     ecut=    60.00 Ry     beta=0.70
     Davidson diagonalization with overlap
     ethr =  1.00E-02,  avg # of iterations =  7.2

     total cpu time spent up to now is        2.5 secs

     total energy              =     -22.78844389 Ry
     Harris-Foulkes estimate   =     -22.82736422 Ry
     estimated scf accuracy    <       0.11891082 Ry

     iteration #  2     ecut=    60.00 Ry     beta=0.70
     Davidson diagonalization with overlap
     ethr =  1.49E-03,  avg # of iterations =  1.2

     total cpu time spent up to now is        2.7 secs

     total energy              =     -22.78042072 Ry
     Harris-Foulkes estimate   =     -22.79163922 Ry
     estimated scf accuracy    <       0.02629225 Ry

     iteration #  3     ecut=    60.00 Ry     beta=0.70
     Davidson diagonalization with overlap
     ethr =  3.29E-04,  avg # of iterations =  2.2

     total cpu time spent up to now is        3.0 secs

     total energy              =     -22.78310395 Ry
     Harris-Foulkes estimate   =     -22.78294703 Ry
     estimated scf accuracy    <       0.00012826 Ry

     iteration #  4     ecut=    60.00 Ry     beta=0.70
     Davidson diagonalization with overlap
     ethr =  1.60E-06,  avg # of iterations =  3.0

     total cpu time spent up to now is        3.3 secs

     total energy              =     -22.78317459 Ry
     Harris-Foulkes estimate   =     -22.78317544 Ry
     estimated scf accuracy    <       0.00001470 Ry

     iteration #  5     ecut=    60.00 Ry     beta=0.70
     Davidson diagonalization with overlap
     ethr =  1.84E-07,  avg # of iterations =  1.8

     total cpu time spent up to now is        3.5 secs

     total energy              =     -22.78317566 Ry
     Harris-Foulkes estimate   =     -22.78317584 Ry
     estimated scf accuracy    <       0.00000059 Ry

     iteration #  6     ecut=    60.00 Ry     beta=0.70
     Davidson diagonalization with overlap
     ethr =  7.36E-09,  avg # of iterations =  2.3

     total cpu time spent up to now is        3.8 secs

     total energy              =     -22.78317572 Ry
     Harris-Foulkes estimate   =     -22.78317573 Ry
     estimated scf accuracy    <       0.00000001 Ry

     iteration #  7     ecut=    60.00 Ry     beta=0.70
     Davidson diagonalization with overlap
     ethr =  1.53E-10,  avg # of iterations =  2.7

     total cpu time spent up to now is        4.1 secs

     total energy              =     -22.78317572 Ry
     Harris-Foulkes estimate   =     -22.78317573 Ry
     estimated scf accuracy    <          1.3E-09 Ry

     iteration #  8     ecut=    60.00 Ry     beta=0.70
     Davidson diagonalization with overlap
     ethr =  1.64E-11,  avg # of iterations =  2.6

     total cpu time spent up to now is        4.4 secs

     total energy              =     -22.78317573 Ry
     Harris-Foulkes estimate   =     -22.78317573 Ry
     estimated scf accuracy    <          1.8E-11 Ry

     iteration #  9     ecut=    60.00 Ry     beta=0.70
     Davidson diagonalization with overlap
     ethr =  2.26E-13,  avg # of iterations =  2.4

     total cpu time spent up to now is        4.7 secs

     total energy              =     -22.78317573 Ry
     Harris-Foulkes estimate   =     -22.78317573 Ry
     estimated scf accuracy    <          8.5E-13 Ry

     iteration # 10     ecut=    60.00 Ry     beta=0.70
     Davidson diagonalization with overlap
     ethr =  1.00E-13,  avg # of iterations =  1.0

     total cpu time spent up to now is        4.9 secs

     total energy              =     -22.78317573 Ry
     Harris-Foulkes estimate   =     -22.78317573 Ry
     estimated scf accuracy    <          4.7E-14 Ry

     iteration # 11     ecut=    60.00 Ry     beta=0.70
     Davidson diagonalization with overlap
     ethr =  1.00E-13,  avg # of iterations =  1.0

     total cpu time spent up to now is        5.0 secs

     End of self-consistent calculation

          k = 0.0000 0.0000 0.0000 (   609 PWs)   bands (ev):

    -8.0462  13.6128  13.6128  13.6128  19.2660  19.2660  19.2660  27.3323

          k =-0.1250 0.1250-0.1250 (   576 PWs)   bands (ev):

    -7.6097  11.1818  12.9578  12.9578  20.1391  20.1391  20.5939  27.6690

          k =-0.2500 0.2500-0.2500 (   589 PWs)   bands (ev):

    -6.3135   6.9627  11.8464  11.8464  21.4948  21.4948  21.9391  28.5232

          k =-0.3750 0.3750-0.3750 (   598 PWs)   bands (ev):

    -4.2227   2.8363  11.0517  11.0517  22.0942  22.0942  22.5510  29.2628

          k = 0.5000-0.5000 0.5000 (   580 PWs)   bands (ev):

    -2.1803   0.0834  10.7757  10.7757  22.1700  22.1700  22.7239  29.4731

          k = 0.0000 0.2500 0.0000 (   581 PWs)   bands (ev):

    -7.4645  11.8664  11.8664  12.2995  18.8607  21.5187  21.5187  27.2583

          k =-0.1250 0.3750-0.1250 (   582 PWs)   bands (ev):

    -6.4552   8.4831  10.6997  11.5742  19.5324  23.1029  23.1583  26.7100

          k =-0.2500 0.5000-0.2500 (   588 PWs)   bands (ev):

    -4.6230   4.4149  10.0422  10.3907  20.7170  23.8281  23.8963  27.2797

          k = 0.6250-0.3750 0.6250 (   590 PWs)   bands (ev):

    -2.2496   0.9240   9.4230  10.0413  21.3333  23.5442  24.1339  28.9754

          k = 0.5000-0.2500 0.5000 (   589 PWs)   bands (ev):

    -3.0376   1.9484   8.9841  10.6672  21.9349  22.8871  24.0253  29.1977

          k = 0.3750-0.1250 0.3750 (   590 PWs)   bands (ev):

    -5.3209   5.7796   9.2011  11.7526  21.8325  22.3941  23.3925  28.0083

          k = 0.2500 0.0000 0.2500 (   582 PWs)   bands (ev):

    -6.8867   9.6040  10.3204  12.8513  20.4419  21.7920  21.9136  27.7076

          k = 0.0000 0.5000 0.0000 (   592 PWs)   bands (ev):

    -5.7387   9.0954   9.4330   9.4330  18.1306  24.0220  25.3525  25.3525

          k =-0.1250 0.6250-0.1250 (   595 PWs)   bands (ev):

    -4.1920   6.0458   8.3378   8.6926  18.8729  23.0842  26.6679  26.7206

          k = 0.7500-0.2500 0.7500 (   598 PWs)   bands (ev):

    -1.9542   2.7323   6.8040   8.6665  19.7866  25.2040  26.5840  27.1662

          k = 0.6250-0.1250 0.6250 (   587 PWs)   bands (ev):

    -1.2390   1.9113   5.7895   9.3515  20.5636  25.5336  27.1297  28.6170

          k = 0.5000 0.0000 0.5000 (   590 PWs)   bands (ev):

    -3.5296   4.8531   5.9113  10.5619  21.6631  23.7426  26.1616  27.7817

          k = 0.0000 0.7500 0.0000 (   596 PWs)   bands (ev):

    -2.9394   4.9885   7.7917   7.7917  17.8275  20.4455  28.9381  28.9381

          k = 0.8750-0.1250 0.8750 (   598 PWs)   bands (ev):

    -0.9538   2.8828   6.1667   7.6062  18.6758  20.7274  29.4717  29.7582

          k = 0.7500 0.0000 0.7500 (   594 PWs)   bands (ev):

     0.5694   1.7995   4.1588   8.1739  19.3821  24.5110  28.1686  29.4903

          k = 0.0000-1.0000 0.0000 (   588 PWs)   bands (ev):

     0.7611   0.7611   7.2258   7.2258  18.4599  18.4599  30.6501  30.6501

          k =-0.2500 0.5000 0.0000 (   592 PWs)   bands (ev):

    -5.1762   7.0610   8.0412  10.6956  20.2805  23.7951  25.3499  25.5660

          k = 0.6250-0.3750 0.8750 (   588 PWs)   bands (ev):

    -3.1258   3.6809   7.2704   9.4792  21.6865  23.3909  26.2330  27.1405

          k = 0.5000-0.2500 0.7500 (   592 PWs)   bands (ev):

    -1.1619   1.1122   7.2423   8.8584  22.0012  23.2333  26.8944  28.6820

          k = 0.7500-0.2500 1.0000 (   588 PWs)   bands (ev):

    -2.4230   4.5586   6.5279   7.5877  20.0379  22.3279  26.8115  28.9447

          k = 0.6250-0.1250 0.8750 (   594 PWs)   bands (ev):

    -0.1933   2.3646   5.0958   7.1744  21.2501  24.6462  26.3608  28.7678

          k = 0.5000 0.0000 0.7500 (   586 PWs)   bands (ev):

    -0.9969   3.1414   4.6273   8.0652  22.0914  24.5268  26.9137  28.3695

          k =-0.2500-1.0000 0.0000 (   598 PWs)   bands (ev):

     1.1078   1.1078   6.1961   6.1961  20.5915  20.5915  29.3973  29.3973

          k =-0.5000-1.0000 0.0000 (   604 PWs)   bands (ev):

     1.5780   1.5780   5.1652   5.1652  24.3435  24.3435  26.1559  26.1559

     highest occupied, lowest unoccupied level (ev):    13.6128   17.8275

!    total energy              =     -22.78317573 Ry
     Harris-Foulkes estimate   =     -22.78317573 Ry
     estimated scf accuracy    <          5.3E-16 Ry

     The total energy is the sum of the following terms:

     one-electron contribution =       8.15475404 Ry
     hartree contribution      =       1.92102327 Ry
     xc contribution           =      -7.14410961 Ry
     ewald contribution        =     -25.71484343 Ry

     convergence has been achieved in  11 iterations

     Forces acting on atoms (cartesian axes, Ry/au):

     atom    1 type  1   force =     0.00000000    0.00000000   -0.00000000
     atom    2 type  1   force =    -0.00000000   -0.00000000    0.00000000

     Total force =     0.000000     Total SCF correction =     0.000000


     Computing stress (Cartesian axis) and pressure

          total   stress  (Ry/bohr**3)                   (kbar)     P=   26.78
   0.00018204   0.00000000  -0.00000000         26.78      0.00     -0.00
  -0.00000000   0.00018204   0.00000000         -0.00     26.78      0.00
  -0.00000000   0.00000000   0.00018204         -0.00      0.00     26.78


     BFGS Geometry Optimization

     number of scf cycles    =   1
     number of bfgs steps    =   0

     enthalpy new            =     -22.7831757251 Ry

     new trust radius        =       0.0078984927 bohr
     new conv_thr            =            1.0E-15 Ry

     new unit-cell volume =     76.33896 a.u.^3 (    11.31227 Ang^3 )
     density =      3.52621 g/cm^3

CELL_PARAMETERS (alat=  6.70342551)
  -0.502275459   0.000000000   0.502275459
  -0.000000000   0.502275459   0.502275459
  -0.502275459   0.502275459   0.000000000

ATOMIC_POSITIONS (crystal)
C       -0.000000000   0.000000000   0.000000000
C        0.250000000   0.250000000   0.250000000



     Writing output data file c.save
     NEW-OLD atomic charge density approx. for the potential
     extrapolated charge    8.10805, renormalised to    8.00000

     total cpu time spent up to now is        5.2 secs

     per-process dynamical memory:    19.0 Mb

     Self-consistent Calculation

     iteration #  1     ecut=    60.00 Ry     beta=0.70
     Davidson diagonalization with overlap
     ethr =  1.00E-06,  avg # of iterations =  3.4

     total cpu time spent up to now is        5.6 secs

     total energy              =     -22.78296372 Ry
     Harris-Foulkes estimate   =     -22.85635653 Ry
     estimated scf accuracy    <       0.00008527 Ry

     iteration #  2     ecut=    60.00 Ry     beta=0.70
     Davidson diagonalization with overlap
     ethr =  1.07E-06,  avg # of iterations =  3.5

     total cpu time spent up to now is        5.9 secs

     total energy              =     -22.78313991 Ry
     Harris-Foulkes estimate   =     -22.78314517 Ry
     estimated scf accuracy    <       0.00002122 Ry

     iteration #  3     ecut=    60.00 Ry     beta=0.70
     Davidson diagonalization with overlap
     ethr =  2.65E-07,  avg # of iterations =  1.0

     total cpu time spent up to now is        6.1 secs

     total energy              =     -22.78313637 Ry
     Harris-Foulkes estimate   =     -22.78314024 Ry
     estimated scf accuracy    <       0.00000850 Ry

     iteration #  4     ecut=    60.00 Ry     beta=0.70
     Davidson diagonalization with overlap
     ethr =  1.06E-07,  avg # of iterations =  2.0

     total cpu time spent up to now is        6.4 secs

     total energy              =     -22.78313693 Ry
     Harris-Foulkes estimate   =     -22.78313698 Ry
     estimated scf accuracy    <       0.00000012 Ry

     iteration #  5     ecut=    60.00 Ry     beta=0.70
     Davidson diagonalization with overlap
     ethr =  1.56E-09,  avg # of iterations =  2.6

     total cpu time spent up to now is        6.7 secs

     total energy              =     -22.78313697 Ry
     Harris-Foulkes estimate   =     -22.78313697 Ry
     estimated scf accuracy    <       0.00000001 Ry

     iteration #  6     ecut=    60.00 Ry     beta=0.70
     Davidson diagonalization with overlap
     ethr =  1.26E-10,  avg # of iterations =  2.2

     total cpu time spent up to now is        6.9 secs

     total energy              =     -22.78313697 Ry
     Harris-Foulkes estimate   =     -22.78313697 Ry
     estimated scf accuracy    <          6.9E-10 Ry

     iteration #  7     ecut=    60.00 Ry     beta=0.70
     Davidson diagonalization with overlap
     ethr =  8.64E-12,  avg # of iterations =  2.4

     total cpu time spent up to now is        7.2 secs

     total energy              =     -22.78313697 Ry
     Harris-Foulkes estimate   =     -22.78313697 Ry
     estimated scf accuracy    <          3.3E-12 Ry

     iteration #  8     ecut=    60.00 Ry     beta=0.70
     Davidson diagonalization with overlap
     ethr =  1.00E-13,  avg # of iterations =  3.1

     total cpu time spent up to now is        7.6 secs

     total energy              =     -22.78313697 Ry
     Harris-Foulkes estimate   =     -22.78313697 Ry
     estimated scf accuracy    <          4.0E-14 Ry

     iteration #  9     ecut=    60.00 Ry     beta=0.70
     Davidson diagonalization with overlap
     ethr =  1.00E-13,  avg # of iterations =  1.0

     total cpu time spent up to now is        7.7 secs

     total energy              =     -22.78313697 Ry
     Harris-Foulkes estimate   =     -22.78313697 Ry
     estimated scf accuracy    <          1.1E-14 Ry

     iteration # 10     ecut=    60.00 Ry     beta=0.70
     Davidson diagonalization with overlap
     ethr =  1.00E-13,  avg # of iterations =  1.0

     total cpu time spent up to now is        7.9 secs

     End of self-consistent calculation

          k = 0.0000 0.0000 0.0000 (   609 PWs)   bands (ev):

    -8.1100  13.3666  13.3666  13.3666  18.9824  18.9824  18.9824  26.7707

          k =-0.1244 0.1244-0.1244 (   576 PWs)   bands (ev):

    -7.6776  10.9611  12.7218  12.7218  19.8431  19.8431  20.2781  27.1314

          k =-0.2489 0.2489-0.2489 (   589 PWs)   bands (ev):

    -6.3938   6.7809  11.6242  11.6242  21.1847  21.1847  21.5648  28.0534

          k =-0.3733 0.3733-0.3733 (   598 PWs)   bands (ev):

    -4.3256   2.6951  10.8382  10.8382  21.7862  21.7862  22.1319  28.8644

          k = 0.4977-0.4977 0.4977 (   580 PWs)   bands (ev):

    -2.3229  -0.0116  10.5651  10.5651  21.8664  21.8664  22.2896  29.1023

          k = 0.0000 0.2489 0.0000 (   581 PWs)   bands (ev):

    -7.5338  11.6469  11.6469  12.0536  18.5773  21.2017  21.2017  26.7518

          k =-0.1244 0.3733-0.1244 (   582 PWs)   bands (ev):

    -6.5339   8.2859  10.4947  11.3437  19.2390  22.7455  22.8213  26.2936

          k =-0.2489 0.4977-0.2489 (   588 PWs)   bands (ev):

    -4.7205   4.2560   9.8440  10.1751  20.4139  23.4910  23.4954  26.9002

          k = 0.6222-0.3733 0.6222 (   590 PWs)   bands (ev):

    -2.3823   0.8103   9.2200   9.8417  21.0288  23.2182  23.7115  28.5857

          k = 0.4977-0.2489 0.4977 (   589 PWs)   bands (ev):

    -3.1553   1.8176   8.7881  10.4590  21.6179  22.5679  23.6129  28.7905

          k = 0.3733-0.1244 0.3733 (   590 PWs)   bands (ev):

    -5.4110   5.6070   9.0054  11.5301  21.5197  22.0534  23.0243  27.5730

          k = 0.2489 0.0000 0.2489 (   582 PWs)   bands (ev):

    -6.9614   9.3916  10.1191  12.6145  20.1442  21.4632  21.5769  27.2188

          k = 0.0000 0.4977 0.0000 (   592 PWs)   bands (ev):

    -5.8242   8.8645   9.2441   9.2441  17.8491  23.6819  24.9834  24.9834

          k =-0.1244 0.6222-0.1244 (   595 PWs)   bands (ev):

    -4.2928   5.8570   8.1482   8.5120  18.5848  22.7665  26.2843  26.3173

          k = 0.7466-0.2489 0.7466 (   598 PWs)   bands (ev):

    -2.0820   2.5842   6.6294   8.4853  19.4968  24.8525  26.2078  26.7377

          k = 0.6222-0.1244 0.6222 (   587 PWs)   bands (ev):

    -1.3813   1.7797   5.6272   9.1613  20.2668  25.1715  26.6868  28.2034

          k = 0.4977 0.0000 0.4977 (   590 PWs)   bands (ev):

    -3.6386   4.6744   5.7592  10.3557  21.3460  23.4023  25.7708  27.3329

          k = 0.0000 0.7466 0.0000 (   596 PWs)   bands (ev):

    -3.0522   4.7943   7.6219   7.6219  17.5495  20.1584  28.5167  28.5167

          k = 0.8710-0.1244 0.8710 (   598 PWs)   bands (ev):

    -1.0880   2.7072   6.0191   7.4382  18.3951  20.4294  29.0430  29.3126

          k = 0.7466 0.0000 0.7466 (   594 PWs)   bands (ev):

     0.4024   1.6418   4.0437   7.9988  19.0981  24.1632  27.7625  29.0320

          k = 0.0000-0.9955 0.0000 (   588 PWs)   bands (ev):

     0.6106   0.6106   7.0626   7.0626  18.1832  18.1832  30.1988  30.1988

          k =-0.2489 0.4977 0.0000 (   592 PWs)   bands (ev):

    -5.2675   6.8644   7.8659  10.4827  19.9772  23.4483  24.9781  25.1823

          k = 0.6222-0.3733 0.8710 (   588 PWs)   bands (ev):

    -3.2395   3.5252   7.0911   9.2860  21.3773  23.0511  25.8139  26.7571

          k = 0.4977-0.2489 0.7466 (   592 PWs)   bands (ev):

    -1.3122   0.9996   7.0579   8.6768  21.7099  22.8688  26.4634  28.2704

          k = 0.7466-0.2489 0.9955 (   588 PWs)   bands (ev):

    -2.5423   4.3673   6.3712   7.4237  19.7377  22.0238  26.4051  28.5179

          k = 0.6222-0.1244 0.8710 (   594 PWs)   bands (ev):

    -0.3446   2.2057   4.9530   7.0152  20.9481  24.3166  25.9472  28.3323

          k = 0.4977 0.0000 0.7466 (   586 PWs)   bands (ev):

    -1.1372   2.9698   4.4958   7.8924  21.7860  24.1772  26.4919  27.9378

          k =-0.2489-0.9955 0.0000 (   598 PWs)   bands (ev):

     0.9492   0.9492   6.0479   6.0479  20.2931  20.2931  28.9610  28.9610

          k =-0.4977-0.9955 0.0000 (   604 PWs)   bands (ev):

     1.4050   1.4050   5.0370   5.0370  24.0352  24.0352  25.7324  25.7324

     highest occupied, lowest unoccupied level (ev):    13.3666   17.5495

!    total energy              =     -22.78313697 Ry
     Harris-Foulkes estimate   =     -22.78313697 Ry
     estimated scf accuracy    <          2.9E-16 Ry

     The total energy is the sum of the following terms:

     one-electron contribution =       8.00244957 Ry
     hartree contribution      =       1.93460478 Ry
     xc contribution           =      -7.12184388 Ry
     ewald contribution        =     -25.59834744 Ry

     convergence has been achieved in  10 iterations

     Forces acting on atoms (cartesian axes, Ry/au):

     atom    1 type  1   force =    -0.00000000   -0.00000000    0.00000000
     atom    2 type  1   force =     0.00000000    0.00000000   -0.00000000

     Total force =     0.000000     Total SCF correction =     0.000000


     Computing stress (Cartesian axis) and pressure

          total   stress  (Ry/bohr**3)                   (kbar)     P=  -37.18
  -0.00025271  -0.00000000  -0.00000000        -37.18     -0.00     -0.00
   0.00000000  -0.00025271   0.00000000          0.00    -37.18      0.00
  -0.00000000   0.00000000  -0.00025271         -0.00      0.00    -37.18


     number of scf cycles    =   2
     number of bfgs steps    =   1

     enthalpy old            =     -22.7831757251 Ry
     enthalpy new            =     -22.7831369680 Ry

     CASE: enthalpy_new > enthalpy_old

     new trust radius        =       0.0032791668 bohr
     new conv_thr            =            1.0E-15 Ry

     new unit-cell volume =     75.73282 a.u.^3 (    11.22245 Ang^3 )
     density =      3.55444 g/cm^3

CELL_PARAMETERS (alat=  6.70342551)
  -0.500942546   0.000000000   0.500942546
  -0.000000000   0.500942546   0.500942546
  -0.500942546   0.500942546   0.000000000

ATOMIC_POSITIONS (crystal)
C       -0.000000000   0.000000000   0.000000000
C        0.250000000   0.250000000   0.250000000



     Writing output data file c.save
     NEW-OLD atomic charge density approx. for the potential
     extrapolated charge    7.93608, renormalised to    8.00000

     total cpu time spent up to now is        8.0 secs

     per-process dynamical memory:    19.2 Mb

     Self-consistent Calculation

     iteration #  1     ecut=    60.00 Ry     beta=0.70
     Davidson diagonalization with overlap
     ethr =  1.00E-06,  avg # of iterations =  2.9

     total cpu time spent up to now is        8.3 secs

     total energy              =     -22.78315407 Ry
     Harris-Foulkes estimate   =     -22.73967778 Ry
     estimated scf accuracy    <       0.00003107 Ry

     iteration #  2     ecut=    60.00 Ry     beta=0.70
     Davidson diagonalization with overlap
     ethr =  3.88E-07,  avg # of iterations =  3.4

     total cpu time spent up to now is        8.7 secs

     total energy              =     -22.78321516 Ry
     Harris-Foulkes estimate   =     -22.78321689 Ry
     estimated scf accuracy    <       0.00000694 Ry

     iteration #  3     ecut=    60.00 Ry     beta=0.70
     Davidson diagonalization with overlap
     ethr =  8.67E-08,  avg # of iterations =  1.0

     total cpu time spent up to now is        8.9 secs

     total energy              =     -22.78321404 Ry
     Harris-Foulkes estimate   =     -22.78321527 Ry
     estimated scf accuracy    <       0.00000272 Ry

     iteration #  4     ecut=    60.00 Ry     beta=0.70
     Davidson diagonalization with overlap
     ethr =  3.39E-08,  avg # of iterations =  2.0

     total cpu time spent up to now is        9.1 secs

     total energy              =     -22.78321423 Ry
     Harris-Foulkes estimate   =     -22.78321424 Ry
     estimated scf accuracy    <       0.00000004 Ry

     iteration #  5     ecut=    60.00 Ry     beta=0.70
     Davidson diagonalization with overlap
     ethr =  4.46E-10,  avg # of iterations =  2.6

     total cpu time spent up to now is        9.4 secs

     total energy              =     -22.78321424 Ry
     Harris-Foulkes estimate   =     -22.78321424 Ry
     estimated scf accuracy    <          3.2E-09 Ry

     iteration #  6     ecut=    60.00 Ry     beta=0.70
     Davidson diagonalization with overlap
     ethr =  4.05E-11,  avg # of iterations =  2.2

     total cpu time spent up to now is        9.7 secs

     total energy              =     -22.78321424 Ry
     Harris-Foulkes estimate   =     -22.78321424 Ry
     estimated scf accuracy    <          2.1E-10 Ry

     iteration #  7     ecut=    60.00 Ry     beta=0.70
     Davidson diagonalization with overlap
     ethr =  2.61E-12,  avg # of iterations =  2.4

     total cpu time spent up to now is       10.0 secs

     total energy              =     -22.78321424 Ry
     Harris-Foulkes estimate   =     -22.78321424 Ry
     estimated scf accuracy    <          1.1E-12 Ry

     iteration #  8     ecut=    60.00 Ry     beta=0.70
     Davidson diagonalization with overlap
     ethr =  1.00E-13,  avg # of iterations =  2.4

     total cpu time spent up to now is       10.3 secs

     total energy              =     -22.78321424 Ry
     Harris-Foulkes estimate   =     -22.78321424 Ry
     estimated scf accuracy    <          1.4E-14 Ry

     iteration #  9     ecut=    60.00 Ry     beta=0.70
     Davidson diagonalization with overlap
     ethr =  1.00E-13,  avg # of iterations =  1.0

     total cpu time spent up to now is       10.4 secs

     total energy              =     -22.78321424 Ry
     Harris-Foulkes estimate   =     -22.78321424 Ry
     estimated scf accuracy    <          3.7E-15 Ry

     iteration # 10     ecut=    60.00 Ry     beta=0.70
     Davidson diagonalization with overlap
     ethr =  1.00E-13,  avg # of iterations =  1.0

     total cpu time spent up to now is       10.6 secs

     End of self-consistent calculation

          k = 0.0000 0.0000 0.0000 (   609 PWs)   bands (ev):

    -8.0728  13.5104  13.5104  13.5104  19.1480  19.1480  19.1480  27.0987

          k =-0.1248 0.1248-0.1248 (   576 PWs)   bands (ev):

    -7.6380  11.0900  12.8596  12.8596  20.0160  20.0160  20.4625  27.4454

          k =-0.2495 0.2495-0.2495 (   589 PWs)   bands (ev):

    -6.3469   6.8871  11.7539  11.7539  21.3658  21.3658  21.7835  28.3279

          k =-0.3743 0.3743-0.3743 (   598 PWs)   bands (ev):

    -4.2655   2.7776  10.9629  10.9629  21.9661  21.9661  22.3767  29.0973

          k = 0.4991-0.4991 0.4991 (   580 PWs)   bands (ev):

    -2.2397   0.0439  10.6881  10.6881  22.0438  22.0438  22.5432  29.3191

          k = 0.0000 0.2495 0.0000 (   581 PWs)   bands (ev):

    -7.4933  11.7750  11.7750  12.1972  18.7428  21.3868  21.3868  27.0479

          k =-0.1248 0.3743-0.1248 (   582 PWs)   bands (ev):

    -6.4880   8.4010  10.6144  11.4783  19.4104  22.9543  23.0181  26.5372

          k =-0.2495 0.4991-0.2495 (   588 PWs)   bands (ev):

    -4.6636   4.3488   9.9597  10.3010  20.5910  23.6879  23.7297  27.1219

          k = 0.6238-0.3743 0.6238 (   590 PWs)   bands (ev):

    -2.3048   0.8767   9.3385   9.9583  21.2068  23.4087  23.9581  28.8134

          k = 0.4991-0.2495 0.4991 (   589 PWs)   bands (ev):

    -3.0866   1.8940   8.9025  10.5805  21.8033  22.7543  23.8535  29.0284

          k = 0.3743-0.1248 0.3743 (   590 PWs)   bands (ev):

    -5.3584   5.7078   9.1197  11.6600  21.7024  22.2527  23.2392  27.8273

          k = 0.2495 0.0000 0.2495 (   582 PWs)   bands (ev):

    -6.9178   9.5156  10.2367  12.7528  20.3181  21.6552  21.7736  27.5045

          k = 0.0000 0.4991 0.0000 (   592 PWs)   bands (ev):

    -5.7743   8.9994   9.3544   9.3544  18.0135  23.8809  25.1990  25.1990

          k =-0.1248 0.6238-0.1248 (   595 PWs)   bands (ev):

    -4.2339   5.9673   8.2588   8.6174  18.7531  22.9523  26.5083  26.5527

          k = 0.7486-0.2495 0.7486 (   598 PWs)   bands (ev):

    -2.0074   2.6707   6.7313   8.5911  19.6661  25.0581  26.4276  26.9877

          k = 0.6238-0.1248 0.6238 (   587 PWs)   bands (ev):

    -1.2982   1.8566   5.7219   9.2724  20.4403  25.3830  26.9454  28.4451

          k = 0.4991 0.0000 0.4991 (   590 PWs)   bands (ev):

    -3.5750   4.7788   5.8480  10.4761  21.5314  23.6010  25.9990  27.5949

          k = 0.0000 0.7486 0.0000 (   596 PWs)   bands (ev):

    -2.9863   4.9077   7.7211   7.7211  17.7118  20.3262  28.7628  28.7628

          k = 0.8734-0.1248 0.8734 (   598 PWs)   bands (ev):

    -1.0096   2.8098   6.1053   7.5363  18.5591  20.6035  29.2933  29.5727

          k = 0.7486 0.0000 0.7486 (   594 PWs)   bands (ev):

     0.4999   1.7339   4.1110   8.1010  19.2640  24.3665  27.9997  29.2995

          k = 0.0000-0.9981 0.0000 (   588 PWs)   bands (ev):

     0.6985   0.6985   7.1579   7.1579  18.3448  18.3448  30.4623  30.4623

          k =-0.2495 0.4991 0.0000 (   592 PWs)   bands (ev):

    -5.2142   6.9792   7.9683  10.6070  20.1544  23.6511  25.1952  25.4064

          k = 0.6238-0.3743 0.8734 (   588 PWs)   bands (ev):

    -3.1731   3.6161   7.1957   9.3988  21.5580  23.2497  26.0586  26.9811

          k = 0.4991-0.2495 0.7486 (   592 PWs)   bands (ev):

    -1.2244   1.0654   7.1655   8.7828  21.8801  23.0818  26.7149  28.5108

          k = 0.7486-0.2495 0.9981 (   588 PWs)   bands (ev):

    -2.4726   4.4791   6.4627   7.5194  19.9130  22.2016  26.6423  28.7671

          k = 0.6238-0.1248 0.8734 (   594 PWs)   bands (ev):

    -0.2562   2.2986   5.0363   7.1081  21.1246  24.5092  26.1887  28.5866

          k = 0.4991 0.0000 0.7486 (   586 PWs)   bands (ev):

    -1.0552   3.0700   4.5725   7.9933  21.9645  24.3815  26.7381  28.1899

          k =-0.2495-0.9981 0.0000 (   598 PWs)   bands (ev):

     1.0418   1.0418   6.1344   6.1344  20.4674  20.4674  29.2158  29.2158

          k =-0.4991-0.9981 0.0000 (   604 PWs)   bands (ev):

     1.5060   1.5060   5.1119   5.1119  24.2153  24.2153  25.9798  25.9798

     highest occupied, lowest unoccupied level (ev):    13.5104   17.7118

!    total energy              =     -22.78321424 Ry
     Harris-Foulkes estimate   =     -22.78321424 Ry
     estimated scf accuracy    <          4.1E-17 Ry

     The total energy is the sum of the following terms:

     one-electron contribution =       8.09145541 Ry
     hartree contribution      =       1.92664534 Ry
     xc contribution           =      -7.13485518 Ry
     ewald contribution        =     -25.66645981 Ry

     convergence has been achieved in  10 iterations

     Forces acting on atoms (cartesian axes, Ry/au):

     atom    1 type  1   force =    -0.00000000   -0.00000000   -0.00000000
     atom    2 type  1   force =     0.00000000    0.00000000    0.00000000

     Total force =     0.000000     Total SCF correction =     0.000000


     Computing stress (Cartesian axis) and pressure

          total   stress  (Ry/bohr**3)                   (kbar)     P=   -0.11
  -0.00000076   0.00000000   0.00000000         -0.11      0.00      0.00
   0.00000000  -0.00000076  -0.00000000          0.00     -0.11     -0.00
   0.00000000  -0.00000000  -0.00000076          0.00     -0.00     -0.11


     bfgs converged in   3 scf cycles and   1 bfgs steps
     (criteria: energy <  1.0E-04 Ry, force <  1.0E-03Ry/Bohr, cell <  5.0E-01kbar)

     End of BFGS Geometry Optimization

     Final enthalpy =     -22.7832142375 Ry
Begin final coordinates
     new unit-cell volume =     75.73282 a.u.^3 (    11.22245 Ang^3 )
     density =      3.55444 g/cm^3

CELL_PARAMETERS (alat=  6.70342551)
  -0.500942546   0.000000000   0.500942546
  -0.000000000   0.500942546   0.500942546
  -0.500942546   0.500942546   0.000000000

ATOMIC_POSITIONS (crystal)
C       -0.000000000   0.000000000   0.000000000
C        0.250000000   0.250000000   0.250000000
End final coordinates



     A final scf calculation at the relaxed structure.
     The G-vectors are recalculated for the final unit cell
     Results may differ from those at the preceding step.
 
     Parallelization info
     --------------------
     sticks:   dense  smooth     PW     G-vecs:    dense   smooth      PW
     Min           9       9      3                  116      116      23
     Max          10      10      4                  120      120      27
     Sum         367     367    121                 4693     4693     941
 


     bravais-lattice index     =            2
     lattice parameter (alat)  =       6.7034  a.u.
     unit-cell volume          =      75.7328 (a.u.)^3
     number of atoms/cell      =            2
     number of atomic types    =            1
     number of electrons       =         8.00
     number of Kohn-Sham states=            8
     kinetic-energy cutoff     =      60.0000  Ry
     charge density cutoff     =     240.0000  Ry
     convergence threshold     =      1.0E-15
     mixing beta               =       0.7000
     number of iterations used =            8  local-TF  mixing
     Exchange-correlation      = PBE ( 1  4  3  4 0 0)

     celldm(1)=   6.703426  celldm(2)=   0.000000  celldm(3)=   0.000000
     celldm(4)=   0.000000  celldm(5)=   0.000000  celldm(6)=   0.000000

     crystal axes: (cart. coord. in units of alat)
               a(1) = (  -0.500943   0.000000   0.500943 )  
               a(2) = (  -0.000000   0.500943   0.500943 )  
               a(3) = (  -0.500943   0.500943   0.000000 )  

     reciprocal axes: (cart. coord. in units 2 pi/alat)
               b(1) = ( -0.998118 -0.998118  0.998118 )  
               b(2) = (  0.998118  0.998118  0.998118 )  
               b(3) = ( -0.998118  0.998118 -0.998118 )  


     PseudoPot. # 1 for C  read from file:
     ../C_ONCV_PBE-1.0.upf
     MD5 check sum: 40f8c33130f0afa4272e9dcc1c4fb0df
     Pseudo is Norm-conserving, Zval =  4.0
     Generated using ONCVPSP code by D. R. Hamann
     Using radial grid of  602 points,  4 beta functions with: 
                l(1) =   0
                l(2) =   0
                l(3) =   1
                l(4) =   1

     atomic species   valence    mass     pseudopotential
        C              4.00    12.01100     C ( 1.00)

     48 Sym. Ops., with inversion, found (24 have fractional translation)



   Cartesian axes

     site n.     atom                  positions (alat units)
         1           C   tau(   1) = (   0.0000000   0.0000000  -0.0000000  )
         2           C   tau(   2) = (  -0.2504713   0.2504713   0.2504713  )

     number of k points=    29
                       cart. coord. in units 2pi/alat
        k(    1) = (   0.0000000   0.0000000   0.0000000), wk =   0.0039062
        k(    2) = (  -0.1247648   0.1247648  -0.1247648), wk =   0.0312500
        k(    3) = (  -0.2495296   0.2495296  -0.2495296), wk =   0.0312500
        k(    4) = (  -0.3742944   0.3742944  -0.3742944), wk =   0.0312500
        k(    5) = (   0.4990592  -0.4990592   0.4990592), wk =   0.0156250
        k(    6) = (   0.0000000   0.2495296   0.0000000), wk =   0.0234375
        k(    7) = (  -0.1247648   0.3742944  -0.1247648), wk =   0.0937500
        k(    8) = (  -0.2495296   0.4990592  -0.2495296), wk =   0.0937500
        k(    9) = (   0.6238240  -0.3742944   0.6238240), wk =   0.0937500
        k(   10) = (   0.4990592  -0.2495296   0.4990592), wk =   0.0937500
        k(   11) = (   0.3742944  -0.1247648   0.3742944), wk =   0.0937500
        k(   12) = (   0.2495296   0.0000000   0.2495296), wk =   0.0468750
        k(   13) = (   0.0000000   0.4990592   0.0000000), wk =   0.0234375
        k(   14) = (  -0.1247648   0.6238240  -0.1247648), wk =   0.0937500
        k(   15) = (   0.7485888  -0.2495296   0.7485888), wk =   0.0937500
        k(   16) = (   0.6238240  -0.1247648   0.6238240), wk =   0.0937500
        k(   17) = (   0.4990592   0.0000000   0.4990592), wk =   0.0468750
        k(   18) = (   0.0000000   0.7485888   0.0000000), wk =   0.0234375
        k(   19) = (   0.8733536  -0.1247648   0.8733536), wk =   0.0937500
        k(   20) = (   0.7485888   0.0000000   0.7485888), wk =   0.0468750
        k(   21) = (   0.0000000  -0.9981185   0.0000000), wk =   0.0117188
        k(   22) = (  -0.2495296   0.4990592   0.0000000), wk =   0.0937500
        k(   23) = (   0.6238240  -0.3742944   0.8733536), wk =   0.1875000
        k(   24) = (   0.4990592  -0.2495296   0.7485888), wk =   0.0937500
        k(   25) = (   0.7485888  -0.2495296   0.9981185), wk =   0.0937500
        k(   26) = (   0.6238240  -0.1247648   0.8733536), wk =   0.1875000
        k(   27) = (   0.4990592   0.0000000   0.7485888), wk =   0.0937500
        k(   28) = (  -0.2495296  -0.9981185   0.0000000), wk =   0.0468750
        k(   29) = (  -0.4990592  -0.9981185   0.0000000), wk =   0.0234375

     Dense  grid:     4693 G-vectors     FFT dimensions: (  24,  24,  24)

     Estimated max dynamical RAM per process >       0.19MB

     Estimated total allocated dynamical RAM >       7.75MB
     Message from routine sym_rho_init:
     some processors have no G-vectors for symmetrization
     Message from routine sym_rho_init:
     some processors have no G-vectors for symmetrization

     Initial potential from superposition of free atoms

     starting charge    7.98607, renormalised to    8.00000
     Starting wfc are random

     Writing output data file c.save

     total cpu time spent up to now is       10.9 secs

     per-process dynamical memory:    19.3 Mb

     Self-consistent Calculation

     iteration #  1     ecut=    60.00 Ry     beta=0.70
     Davidson diagonalization with overlap
     ethr =  1.00E-06,  avg # of iterations = 11.2

     total cpu time spent up to now is       12.0 secs

     total energy              =     -22.78855579 Ry
     Harris-Foulkes estimate   =     -22.82740502 Ry
     estimated scf accuracy    <       0.11839104 Ry

     iteration #  2     ecut=    60.00 Ry     beta=0.70
     Davidson diagonalization with overlap
     ethr =  1.48E-03,  avg # of iterations =  1.1

     total cpu time spent up to now is       12.1 secs

     total energy              =     -22.78073671 Ry
     Harris-Foulkes estimate   =     -22.79148609 Ry
     estimated scf accuracy    <       0.02556605 Ry

     iteration #  3     ecut=    60.00 Ry     beta=0.70
     Davidson diagonalization with overlap
     ethr =  3.20E-04,  avg # of iterations =  2.0

     total cpu time spent up to now is       12.4 secs

     total energy              =     -22.78327244 Ry
     Harris-Foulkes estimate   =     -22.78310504 Ry
     estimated scf accuracy    <       0.00012768 Ry

     iteration #  4     ecut=    60.00 Ry     beta=0.70
     Davidson diagonalization with overlap
     ethr =  1.60E-06,  avg # of iterations =  3.0

     total cpu time spent up to now is       12.7 secs

     total energy              =     -22.78334459 Ry
     Harris-Foulkes estimate   =     -22.78334617 Ry
     estimated scf accuracy    <       0.00000967 Ry

     iteration #  5     ecut=    60.00 Ry     beta=0.70
     Davidson diagonalization with overlap
     ethr =  1.21E-07,  avg # of iterations =  2.4

     total cpu time spent up to now is       13.0 secs

     total energy              =     -22.78334574 Ry
     Harris-Foulkes estimate   =     -22.78334580 Ry
     estimated scf accuracy    <       0.00000096 Ry

     iteration #  6     ecut=    60.00 Ry     beta=0.70
     Davidson diagonalization with overlap
     ethr =  1.19E-08,  avg # of iterations =  2.4

     total cpu time spent up to now is       13.3 secs

     total energy              =     -22.78334585 Ry
     Harris-Foulkes estimate   =     -22.78334585 Ry
     estimated scf accuracy    <       0.00000002 Ry

     iteration #  7     ecut=    60.00 Ry     beta=0.70
     Davidson diagonalization with overlap
     ethr =  2.68E-10,  avg # of iterations =  2.2

     total cpu time spent up to now is       13.6 secs

     total energy              =     -22.78334585 Ry
     Harris-Foulkes estimate   =     -22.78334585 Ry
     estimated scf accuracy    <          7.1E-10 Ry

     iteration #  8     ecut=    60.00 Ry     beta=0.70
     Davidson diagonalization with overlap
     ethr =  8.87E-12,  avg # of iterations =  2.9

     total cpu time spent up to now is       13.9 secs

     total energy              =     -22.78334585 Ry
     Harris-Foulkes estimate   =     -22.78334585 Ry
     estimated scf accuracy    <          5.4E-12 Ry

     iteration #  9     ecut=    60.00 Ry     beta=0.70
     Davidson diagonalization with overlap
     ethr =  1.00E-13,  avg # of iterations =  2.3

     total cpu time spent up to now is       14.2 secs

     total energy              =     -22.78334585 Ry
     Harris-Foulkes estimate   =     -22.78334585 Ry
     estimated scf accuracy    <          2.6E-13 Ry

     iteration # 10     ecut=    60.00 Ry     beta=0.70
     Davidson diagonalization with overlap
     ethr =  1.00E-13,  avg # of iterations =  1.0

     total cpu time spent up to now is       14.4 secs

     total energy              =     -22.78334585 Ry
     Harris-Foulkes estimate   =     -22.78334585 Ry
     estimated scf accuracy    <          3.3E-14 Ry

     iteration # 11     ecut=    60.00 Ry     beta=0.70
     Davidson diagonalization with overlap
     ethr =  1.00E-13,  avg # of iterations =  1.0

     total cpu time spent up to now is       14.5 secs

     End of self-consistent calculation

          k = 0.0000 0.0000 0.0000 (   609 PWs)   bands (ev):

    -8.0727  13.5105  13.5105  13.5105  19.1482  19.1482  19.1482  27.0989

          k =-0.1248 0.1248-0.1248 (   579 PWs)   bands (ev):

    -7.6380  11.0901  12.8585  12.8585  20.0158  20.0158  20.4627  27.4456

          k =-0.2495 0.2495-0.2495 (   589 PWs)   bands (ev):

    -6.3468   6.8872  11.7541  11.7541  21.3659  21.3659  21.7836  28.3281

          k =-0.3743 0.3743-0.3743 (   598 PWs)   bands (ev):

    -4.2654   2.7777  10.9630  10.9630  21.9663  21.9663  22.3768  29.0974

          k = 0.4991-0.4991 0.4991 (   580 PWs)   bands (ev):

    -2.2396   0.0440  10.6882  10.6882  22.0439  22.0439  22.5434  29.3192

          k = 0.0000 0.2495 0.0000 (   581 PWs)   bands (ev):

    -7.4933  11.7752  11.7752  12.1973  18.7429  21.3870  21.3870  27.0481

          k =-0.1248 0.3743-0.1248 (   586 PWs)   bands (ev):

    -6.4879   8.4011  10.6133  11.4779  19.4101  22.9537  23.0183  26.5368

          k =-0.2495 0.4991-0.2495 (   601 PWs)   bands (ev):

    -4.6636   4.3479   9.9580  10.3000  20.5905  23.6867  23.7273  27.1185

          k = 0.6238-0.3743 0.6238 (   594 PWs)   bands (ev):

    -2.3048   0.8768   9.3383   9.9571  21.2067  23.4088  23.9574  28.8124

          k = 0.4991-0.2495 0.4991 (   589 PWs)   bands (ev):

    -3.0865   1.8940   8.9027  10.5807  21.8034  22.7545  23.8537  29.0286

          k = 0.3743-0.1248 0.3743 (   592 PWs)   bands (ev):

    -5.3583   5.7079   9.1197  11.6601  21.7008  22.2526  23.2392  27.8274

          k = 0.2495 0.0000 0.2495 (   582 PWs)   bands (ev):

    -6.9177   9.5158  10.2368  12.7529  20.3182  21.6553  21.7738  27.5046

          k = 0.0000 0.4991 0.0000 (   592 PWs)   bands (ev):

    -5.7742   8.9995   9.3546   9.3546  18.0136  23.8809  25.1992  25.1992

          k =-0.1248 0.6238-0.1248 (   597 PWs)   bands (ev):

    -4.2339   5.9674   8.2589   8.6172  18.7532  22.9524  26.5072  26.5525

          k = 0.7486-0.2495 0.7486 (   598 PWs)   bands (ev):

    -2.0073   2.6708   6.7314   8.5912  19.6662  25.0582  26.4277  26.9878

          k = 0.6238-0.1248 0.6238 (   593 PWs)   bands (ev):

    -1.2982   1.8566   5.7205   9.2723  20.4402  25.3830  26.9420  28.4435

          k = 0.4991 0.0000 0.4991 (   602 PWs)   bands (ev):

    -3.5750   4.7783   5.8465  10.4744  21.5304  23.6009  25.9943  27.5936

          k = 0.0000 0.7486 0.0000 (   596 PWs)   bands (ev):

    -2.9862   4.9078   7.7212   7.7212  17.7119  20.3262  28.7630  28.7630

          k = 0.8734-0.1248 0.8734 (   603 PWs)   bands (ev):

    -1.0096   2.8096   6.1046   7.5363  18.5587  20.6035  29.2911  29.5713

          k = 0.7486 0.0000 0.7486 (   594 PWs)   bands (ev):

     0.5000   1.7340   4.1110   8.1012  19.2641  24.3666  27.9998  29.2997

          k = 0.0000-0.9981 0.0000 (   588 PWs)   bands (ev):

     0.6986   0.6986   7.1580   7.1580  18.3449  18.3449  30.4625  30.4625

          k =-0.2495 0.4991 0.0000 (   593 PWs)   bands (ev):

    -5.2142   6.9794   7.9682  10.6072  20.1543  23.6513  25.1946  25.4065

          k = 0.6238-0.3743 0.8734 (   595 PWs)   bands (ev):

    -3.1731   3.6155   7.1958   9.3986  21.5569  23.2485  26.0572  26.9793

          k = 0.4991-0.2495 0.7486 (   592 PWs)   bands (ev):

    -1.2243   1.0655   7.1657   8.7829  21.8802  23.0820  26.7151  28.5110

          k = 0.7486-0.2495 0.9981 (   588 PWs)   bands (ev):

    -2.4725   4.4792   6.4628   7.5196  19.9131  22.2017  26.6425  28.7673

          k = 0.6238-0.1248 0.8734 (   597 PWs)   bands (ev):

    -0.2561   2.2985   5.0362   7.1080  21.1243  24.5088  26.1884  28.5856

          k = 0.4991 0.0000 0.7486 (   590 PWs)   bands (ev):

    -1.0552   3.0700   4.5722   7.9933  21.9640  24.3814  26.7372  28.1884

          k =-0.2495-0.9981 0.0000 (   598 PWs)   bands (ev):

     1.0419   1.0419   6.1346   6.1346  20.4675  20.4675  29.2159  29.2159

          k =-0.4991-0.9981 0.0000 (   604 PWs)   bands (ev):

     1.5062   1.5062   5.1120   5.1120  24.2154  24.2154  25.9799  25.9799

     highest occupied, lowest unoccupied level (ev):    13.5105   17.7119

!    total energy              =     -22.78334585 Ry
     Harris-Foulkes estimate   =     -22.78334585 Ry
     estimated scf accuracy    <          9.4E-16 Ry

     The total energy is the sum of the following terms:

     one-electron contribution =       8.09125032 Ry
     hartree contribution      =       1.92671743 Ry
     xc contribution           =      -7.13485379 Ry
     ewald contribution        =     -25.66645981 Ry

     convergence has been achieved in  11 iterations

     Forces acting on atoms (cartesian axes, Ry/au):

     atom    1 type  1   force =     0.00000000    0.00000000    0.00000000
     atom    2 type  1   force =    -0.00000000   -0.00000000   -0.00000000

     Total force =     0.000000     Total SCF correction =     0.000000


     Computing stress (Cartesian axis) and pressure

          total   stress  (Ry/bohr**3)                   (kbar)     P=    1.19
   0.00000810   0.00000000   0.00000000          1.19      0.00      0.00
   0.00000000   0.00000810  -0.00000000          0.00      1.19     -0.00
   0.00000000   0.00000000   0.00000810          0.00      0.00      1.19


     Writing output data file c.save
 
     init_run     :      0.34s CPU      1.18s WALL (       2 calls)
     electrons    :     11.96s CPU     12.30s WALL (       4 calls)
     update_pot   :      0.01s CPU      0.02s WALL (       2 calls)
     forces       :      0.03s CPU      0.03s WALL (       4 calls)
     stress       :      0.04s CPU      0.04s WALL (       4 calls)

     Called by init_run:
     wfcinit      :      0.31s CPU      0.55s WALL (       2 calls)
     potinit      :      0.01s CPU      0.03s WALL (       2 calls)

     Called by electrons:
     c_bands      :     11.54s CPU     11.80s WALL (      42 calls)
     sum_band     :      0.33s CPU      0.35s WALL (      42 calls)
     v_of_rho     :      0.03s CPU      0.04s WALL (      46 calls)
     mix_rho      :      0.05s CPU      0.06s WALL (      42 calls)

     Called by c_bands:
     init_us_2    :      0.02s CPU      0.03s WALL (    2726 calls)
     cegterg      :     11.44s CPU     11.69s WALL (    1218 calls)

     Called by sum_band:

     Called by *egterg:
     h_psi        :      2.12s CPU      2.19s WALL (    4227 calls)
     g_psi        :      0.00s CPU      0.00s WALL (    2951 calls)
     cdiaghg      :      5.98s CPU      6.29s WALL (    4111 calls)

     Called by h_psi:
     h_psi:pot    :      2.11s CPU      2.19s WALL (    4227 calls)
     h_psi:calbec :      0.14s CPU      0.15s WALL (    4227 calls)
     vloc_psi     :      1.92s CPU      1.98s WALL (    4227 calls)
     add_vuspsi   :      0.03s CPU      0.03s WALL (    4227 calls)

     General routines
     calbec       :      0.15s CPU      0.16s WALL (    4807 calls)
     fft          :      0.03s CPU      0.56s WALL (     536 calls)
     ffts         :      0.02s CPU      0.02s WALL (     484 calls)
     fftw         :      2.07s CPU      2.15s WALL (   65534 calls)
     davcio       :      0.00s CPU      0.00s WALL (      58 calls)
 
     Parallel routines
     fft_scatter  :      1.69s CPU      1.76s WALL (   66554 calls)
 
     PWSCF        :    12.61s CPU        14.92s WALL

 
   This run was terminated on:  11:11: 7  29Dec2020            

=------------------------------------------------------------------------------=
   JOB DONE.
=------------------------------------------------------------------------------=
