
     Program PWSCF v.6.1 (svn rev. 13369) starts on 11Jan2021 at 19:24:15 

     This program is part of the open-source Quantum ESPRESSO suite
     for quantum simulation of materials; please cite
         "P. Giannozzi et al., J. Phys.:Condens. Matter 21 395502 (2009);
          URL http://www.quantum-espresso.org", 
     in publications or presentations arising from this work. More details at
     http://www.quantum-espresso.org/quote

     Parallel version (MPI & OpenMP), running on      40 processor cores
     Number of MPI processes:                40
     Threads/MPI process:                     1
     R & G space division:  proc/nbgrp/npool/nimage =      40
     Waiting for input...
     Reading input from standard input

     Current dimensions of program PWSCF are:
     Max number of different atomic species (ntypx) = 10
     Max number of k-points (npk) =  40000
     Max angular momentum in pseudopotentials (lmaxx) =  3

     IMPORTANT: XC functional enforced from input :
     Exchange-correlation      = PBE ( 1  4  3  4 0 0)
     Any further DFT definition will be discarded
     Please, verify this is what you really want


     Subspace diagonalization in iterative solution of the eigenvalue problem:
     one sub-group per band group will be used
     scalapack distributed-memory algorithm (size of sub-group:  4*  4 procs)

 
     Parallelization info
     --------------------
     sticks:   dense  smooth     PW     G-vecs:    dense   smooth      PW
     Min           9       9      3                  122      122      23
     Max          10      10      4                  125      125      27
     Sum         379     379    121                 4909     4909     941
 


     bravais-lattice index     =            2
     lattice parameter (alat)  =       6.7407  a.u.
     unit-cell volume          =      76.5678 (a.u.)^3
     number of atoms/cell      =            2
     number of atomic types    =            1
     number of electrons       =         8.00
     number of Kohn-Sham states=            8
     kinetic-energy cutoff     =      60.0000  Ry
     charge density cutoff     =     240.0000  Ry
     convergence threshold     =      1.0E-20
     mixing beta               =       0.7000
     number of iterations used =            8  plain     mixing
     Exchange-correlation      = PBE ( 1  4  3  4 0 0)

     celldm(1)=   6.740653  celldm(2)=   0.000000  celldm(3)=   0.000000
     celldm(4)=   0.000000  celldm(5)=   0.000000  celldm(6)=   0.000000

     crystal axes: (cart. coord. in units of alat)
               a(1) = (  -0.500000   0.000000   0.500000 )  
               a(2) = (   0.000000   0.500000   0.500000 )  
               a(3) = (  -0.500000   0.500000   0.000000 )  

     reciprocal axes: (cart. coord. in units 2 pi/alat)
               b(1) = ( -1.000000 -1.000000  1.000000 )  
               b(2) = (  1.000000  1.000000  1.000000 )  
               b(3) = ( -1.000000  1.000000 -1.000000 )  


     PseudoPot. # 1 for C  read from file:
     ../C_ONCV_PBE-1.0.upf
     MD5 check sum: 40f8c33130f0afa4272e9dcc1c4fb0df
     Pseudo is Norm-conserving, Zval =  4.0
     Generated using ONCVPSP code by D. R. Hamann
     Using radial grid of  602 points,  4 beta functions with: 
                l(1) =   0
                l(2) =   0
                l(3) =   1
                l(4) =   1

     atomic species   valence    mass     pseudopotential
        C              4.00    12.01100     C ( 1.00)

     No symmetry found



   Cartesian axes

     site n.     atom                  positions (alat units)
         1           C   tau(   1) = (   0.0000000   0.0000000   0.0000000  )
         2           C   tau(   2) = (  -0.2500000   0.2500000   0.2500000  )

     number of k points=    64
                       cart. coord. in units 2pi/alat
        k(    1) = (   0.0000000   0.0000000   0.0000000), wk =   0.0312500
        k(    2) = (  -0.2500000   0.2500000  -0.2500000), wk =   0.0312500
        k(    3) = (   0.5000000  -0.5000000   0.5000000), wk =   0.0312500
        k(    4) = (   0.2500000  -0.2500000   0.2500000), wk =   0.0312500
        k(    5) = (   0.2500000   0.2500000   0.2500000), wk =   0.0312500
        k(    6) = (   0.0000000   0.5000000   0.0000000), wk =   0.0312500
        k(    7) = (   0.7500000  -0.2500000   0.7500000), wk =   0.0312500
        k(    8) = (   0.5000000   0.0000000   0.5000000), wk =   0.0312500
        k(    9) = (  -0.5000000  -0.5000000  -0.5000000), wk =   0.0312500
        k(   10) = (  -0.7500000  -0.2500000  -0.7500000), wk =   0.0312500
        k(   11) = (   0.0000000  -1.0000000   0.0000000), wk =   0.0312500
        k(   12) = (  -0.2500000  -0.7500000  -0.2500000), wk =   0.0312500
        k(   13) = (  -0.2500000  -0.2500000  -0.2500000), wk =   0.0312500
        k(   14) = (  -0.5000000   0.0000000  -0.5000000), wk =   0.0312500
        k(   15) = (   0.2500000  -0.7500000   0.2500000), wk =   0.0312500
        k(   16) = (   0.0000000  -0.5000000   0.0000000), wk =   0.0312500
        k(   17) = (  -0.2500000  -0.2500000   0.2500000), wk =   0.0312500
        k(   18) = (  -0.5000000   0.0000000   0.0000000), wk =   0.0312500
        k(   19) = (   0.2500000  -0.7500000   0.7500000), wk =   0.0312500
        k(   20) = (   0.0000000  -0.5000000   0.5000000), wk =   0.0312500
        k(   21) = (   0.0000000   0.0000000   0.5000000), wk =   0.0312500
        k(   22) = (  -0.2500000   0.2500000   0.2500000), wk =   0.0312500
        k(   23) = (   0.5000000  -0.5000000   1.0000000), wk =   0.0312500
        k(   24) = (   0.2500000  -0.2500000   0.7500000), wk =   0.0312500
        k(   25) = (  -0.7500000  -0.7500000  -0.2500000), wk =   0.0312500
        k(   26) = (  -1.0000000  -0.5000000  -0.5000000), wk =   0.0312500
        k(   27) = (  -0.2500000  -1.2500000   0.2500000), wk =   0.0312500
        k(   28) = (  -0.5000000  -1.0000000   0.0000000), wk =   0.0312500
        k(   29) = (  -0.5000000  -0.5000000   0.0000000), wk =   0.0312500
        k(   30) = (  -0.7500000  -0.2500000  -0.2500000), wk =   0.0312500
        k(   31) = (   0.0000000  -1.0000000   0.5000000), wk =   0.0312500
        k(   32) = (  -0.2500000  -0.7500000   0.2500000), wk =   0.0312500
        k(   33) = (   0.5000000   0.5000000  -0.5000000), wk =   0.0312500
        k(   34) = (   0.2500000   0.7500000  -0.7500000), wk =   0.0312500
        k(   35) = (   1.0000000   0.0000000   0.0000000), wk =   0.0312500
        k(   36) = (   0.7500000   0.2500000  -0.2500000), wk =   0.0312500
        k(   37) = (   0.7500000   0.7500000  -0.2500000), wk =   0.0312500
        k(   38) = (   0.5000000   1.0000000  -0.5000000), wk =   0.0312500
        k(   39) = (   1.2500000   0.2500000   0.2500000), wk =   0.0312500
        k(   40) = (   1.0000000   0.5000000   0.0000000), wk =   0.0312500
        k(   41) = (   0.0000000   0.0000000  -1.0000000), wk =   0.0312500
        k(   42) = (  -0.2500000   0.2500000  -1.2500000), wk =   0.0312500
        k(   43) = (   0.5000000  -0.5000000  -0.5000000), wk =   0.0312500
        k(   44) = (   0.2500000  -0.2500000  -0.7500000), wk =   0.0312500
        k(   45) = (   0.2500000   0.2500000  -0.7500000), wk =   0.0312500
        k(   46) = (   0.0000000   0.5000000  -1.0000000), wk =   0.0312500
        k(   47) = (   0.7500000  -0.2500000  -0.2500000), wk =   0.0312500
        k(   48) = (   0.5000000   0.0000000  -0.5000000), wk =   0.0312500
        k(   49) = (   0.2500000   0.2500000  -0.2500000), wk =   0.0312500
        k(   50) = (   0.0000000   0.5000000  -0.5000000), wk =   0.0312500
        k(   51) = (   0.7500000  -0.2500000   0.2500000), wk =   0.0312500
        k(   52) = (   0.5000000   0.0000000   0.0000000), wk =   0.0312500
        k(   53) = (   0.5000000   0.5000000   0.0000000), wk =   0.0312500
        k(   54) = (   0.2500000   0.7500000  -0.2500000), wk =   0.0312500
        k(   55) = (   1.0000000   0.0000000   0.5000000), wk =   0.0312500
        k(   56) = (   0.7500000   0.2500000   0.2500000), wk =   0.0312500
        k(   57) = (  -0.2500000  -0.2500000  -0.7500000), wk =   0.0312500
        k(   58) = (  -0.5000000   0.0000000  -1.0000000), wk =   0.0312500
        k(   59) = (   0.2500000  -0.7500000  -0.2500000), wk =   0.0312500
        k(   60) = (   0.0000000  -0.5000000  -0.5000000), wk =   0.0312500
        k(   61) = (   0.0000000   0.0000000  -0.5000000), wk =   0.0312500
        k(   62) = (  -0.2500000   0.2500000  -0.7500000), wk =   0.0312500
        k(   63) = (   0.5000000  -0.5000000   0.0000000), wk =   0.0312500
        k(   64) = (   0.2500000  -0.2500000  -0.2500000), wk =   0.0312500

     Dense  grid:     4909 G-vectors     FFT dimensions: (  24,  24,  24)

     Estimated max dynamical RAM per process >       0.22MB

     Estimated total allocated dynamical RAM >       8.89MB

     Initial potential from superposition of free atoms

     starting charge    7.98607, renormalised to    8.00000
     Starting wfc are random

     total cpu time spent up to now is        0.2 secs

     per-process dynamical memory:    11.9 Mb

     Self-consistent Calculation

     iteration #  1     ecut=    60.00 Ry     beta=0.70
     Davidson diagonalization with overlap
     ethr =  1.00E-02,  avg # of iterations =  7.0

     total cpu time spent up to now is        1.7 secs

     total energy              =     -22.76607514 Ry
     Harris-Foulkes estimate   =     -22.81745165 Ry
     estimated scf accuracy    <       0.11808815 Ry

     iteration #  2     ecut=    60.00 Ry     beta=0.70
     Davidson diagonalization with overlap
     ethr =  1.48E-03,  avg # of iterations =  2.0

     total cpu time spent up to now is        2.2 secs

     total energy              =     -22.77349824 Ry
     Harris-Foulkes estimate   =     -22.77388776 Ry
     estimated scf accuracy    <       0.00263309 Ry

     iteration #  3     ecut=    60.00 Ry     beta=0.70
     Davidson diagonalization with overlap
     ethr =  3.29E-05,  avg # of iterations =  2.7

     total cpu time spent up to now is        2.9 secs

     total energy              =     -22.77394091 Ry
     Harris-Foulkes estimate   =     -22.77392784 Ry
     estimated scf accuracy    <       0.00007528 Ry

     iteration #  4     ecut=    60.00 Ry     beta=0.70
     Davidson diagonalization with overlap
     ethr =  9.41E-07,  avg # of iterations =  2.2

     total cpu time spent up to now is        3.4 secs

     total energy              =     -22.77394591 Ry
     Harris-Foulkes estimate   =     -22.77394734 Ry
     estimated scf accuracy    <       0.00000308 Ry

     iteration #  5     ecut=    60.00 Ry     beta=0.70
     Davidson diagonalization with overlap
     ethr =  3.85E-08,  avg # of iterations =  2.2

     total cpu time spent up to now is        4.0 secs

     total energy              =     -22.77394624 Ry
     Harris-Foulkes estimate   =     -22.77394622 Ry
     estimated scf accuracy    <       0.00000002 Ry

     iteration #  6     ecut=    60.00 Ry     beta=0.70
     Davidson diagonalization with overlap
     ethr =  2.64E-10,  avg # of iterations =  2.7

     total cpu time spent up to now is        4.7 secs

     total energy              =     -22.77394626 Ry
     Harris-Foulkes estimate   =     -22.77394626 Ry
     estimated scf accuracy    <          6.1E-09 Ry

     iteration #  7     ecut=    60.00 Ry     beta=0.70
     Davidson diagonalization with overlap
     ethr =  7.67E-11,  avg # of iterations =  2.9

     total cpu time spent up to now is        5.3 secs

     total energy              =     -22.77394626 Ry
     Harris-Foulkes estimate   =     -22.77394626 Ry
     estimated scf accuracy    <          2.0E-10 Ry

     iteration #  8     ecut=    60.00 Ry     beta=0.70
     Davidson diagonalization with overlap
     ethr =  2.44E-12,  avg # of iterations =  3.0

     total cpu time spent up to now is        6.0 secs

     total energy              =     -22.77394626 Ry
     Harris-Foulkes estimate   =     -22.77394626 Ry
     estimated scf accuracy    <          2.1E-12 Ry

     iteration #  9     ecut=    60.00 Ry     beta=0.70
     Davidson diagonalization with overlap
     ethr =  1.00E-13,  avg # of iterations =  1.3

     total cpu time spent up to now is        6.4 secs

     total energy              =     -22.77394626 Ry
     Harris-Foulkes estimate   =     -22.77394626 Ry
     estimated scf accuracy    <          1.7E-14 Ry

     iteration # 10     ecut=    60.00 Ry     beta=0.70
     Davidson diagonalization with overlap
     ethr =  1.00E-13,  avg # of iterations =  1.0

     total cpu time spent up to now is        6.8 secs

     total energy              =     -22.77394626 Ry
     Harris-Foulkes estimate   =     -22.77394626 Ry
     estimated scf accuracy    <          1.2E-15 Ry

     iteration # 11     ecut=    60.00 Ry     beta=0.70
     Davidson diagonalization with overlap
     ethr =  1.00E-13,  avg # of iterations =  1.0

     total cpu time spent up to now is        7.1 secs

     total energy              =     -22.77394626 Ry
     Harris-Foulkes estimate   =     -22.77394626 Ry
     estimated scf accuracy    <          2.9E-17 Ry

     iteration # 12     ecut=    60.00 Ry     beta=0.70
     Davidson diagonalization with overlap
     ethr =  1.00E-13,  avg # of iterations =  1.0

     total cpu time spent up to now is        7.5 secs

     total energy              =     -22.77394626 Ry
     Harris-Foulkes estimate   =     -22.77394626 Ry
     estimated scf accuracy    <          3.7E-18 Ry

     iteration # 13     ecut=    60.00 Ry     beta=0.70
     Davidson diagonalization with overlap
     ethr =  1.00E-13,  avg # of iterations =  1.0

     total cpu time spent up to now is        7.8 secs

     total energy              =     -22.77394626 Ry
     Harris-Foulkes estimate   =     -22.77394626 Ry
     estimated scf accuracy    <          1.7E-20 Ry

     iteration # 14     ecut=    60.00 Ry     beta=0.70
     Davidson diagonalization with overlap
     ethr =  1.00E-13,  avg # of iterations =  1.0

     total cpu time spent up to now is        8.2 secs

     total energy              =     -22.77394626 Ry
     Harris-Foulkes estimate   =     -22.77394626 Ry
     estimated scf accuracy    <          3.2E-20 Ry

     iteration # 15     ecut=    60.00 Ry     beta=0.70
     Davidson diagonalization with overlap
     ethr =  1.00E-13,  avg # of iterations =  1.0

     total cpu time spent up to now is        8.5 secs

     End of self-consistent calculation

          k = 0.0000 0.0000 0.0000 (   609 PWs)   bands (ev):

    -8.1045  13.3446  13.3446  13.3446  18.9438  18.9438  18.9438  26.6801

          k =-0.2500 0.2500-0.2500 (   595 PWs)   bands (ev):

    -6.3913   6.7659  11.6044  11.6044  21.1416  21.1416  21.5071  27.9782

          k = 0.5000-0.5000 0.5000 (   610 PWs)   bands (ev):

    -2.3309  -0.0165  10.5473  10.5473  21.8159  21.8159  22.2204  29.0415

          k = 0.2500-0.2500 0.2500 (   595 PWs)   bands (ev):

    -6.3913   6.7659  11.6044  11.6044  21.1416  21.1416  21.5071  27.9782

          k = 0.2500 0.2500 0.2500 (   595 PWs)   bands (ev):

    -6.3913   6.7659  11.6044  11.6044  21.1416  21.1416  21.5071  27.9782

          k = 0.0000 0.5000 0.0000 (   592 PWs)   bands (ev):

    -5.8226   8.8430   9.2291   9.2291  17.8083  23.6246  24.9329  24.9329

          k = 0.7500-0.2500 0.7500 (   602 PWs)   bands (ev):

    -2.0878   2.5744   6.6157   8.4716  19.4518  24.7979  26.1531  26.6736

          k = 0.5000 0.0000 0.5000 (   602 PWs)   bands (ev):

    -3.6412   4.6597   5.7470  10.3370  21.2964  23.3539  25.7097  27.2621

          k =-0.5000-0.5000-0.5000 (   610 PWs)   bands (ev):

    -2.3309  -0.0165  10.5473  10.5473  21.8159  21.8159  22.2204  29.0415

          k =-0.7500-0.2500-0.7500 (   602 PWs)   bands (ev):

    -2.0878   2.5744   6.6157   8.4716  19.4518  24.7979  26.1531  26.6736

          k = 0.0000-1.0000 0.0000 (   620 PWs)   bands (ev):

     0.6001   0.6001   7.0487   7.0487  18.1383  18.1383  30.1216  30.1216

          k =-0.2500-0.7500-0.2500 (   602 PWs)   bands (ev):

    -2.0878   2.5744   6.6157   8.4716  19.4518  24.7979  26.1531  26.6736

          k =-0.2500-0.2500-0.2500 (   595 PWs)   bands (ev):

    -6.3913   6.7659  11.6044  11.6044  21.1416  21.1416  21.5071  27.9782

          k =-0.5000 0.0000-0.5000 (   602 PWs)   bands (ev):

    -3.6412   4.6597   5.7470  10.3370  21.2964  23.3539  25.7097  27.2621

          k = 0.2500-0.7500 0.2500 (   602 PWs)   bands (ev):

    -2.0878   2.5744   6.6157   8.4716  19.4518  24.7979  26.1531  26.6736

          k = 0.0000-0.5000 0.0000 (   592 PWs)   bands (ev):

    -5.8226   8.8430   9.2291   9.2291  17.8083  23.6246  24.9329  24.9329

          k =-0.2500-0.2500 0.2500 (   595 PWs)   bands (ev):

    -6.3913   6.7659  11.6044  11.6044  21.1416  21.1416  21.5071  27.9782

          k =-0.5000 0.0000 0.0000 (   592 PWs)   bands (ev):

    -5.8226   8.8430   9.2291   9.2291  17.8083  23.6246  24.9329  24.9329

          k = 0.2500-0.7500 0.7500 (   602 PWs)   bands (ev):

    -2.0878   2.5744   6.6157   8.4716  19.4518  24.7979  26.1531  26.6736

          k = 0.0000-0.5000 0.5000 (   602 PWs)   bands (ev):

    -3.6412   4.6597   5.7470  10.3370  21.2964  23.3539  25.7097  27.2621

          k = 0.0000 0.0000 0.5000 (   592 PWs)   bands (ev):

    -5.8226   8.8430   9.2291   9.2291  17.8083  23.6246  24.9329  24.9329

          k =-0.2500 0.2500 0.2500 (   595 PWs)   bands (ev):

    -6.3913   6.7659  11.6044  11.6044  21.1416  21.1416  21.5071  27.9782

          k = 0.5000-0.5000 1.0000 (   602 PWs)   bands (ev):

    -3.6412   4.6597   5.7470  10.3370  21.2964  23.3539  25.7097  27.2621

          k = 0.2500-0.2500 0.7500 (   602 PWs)   bands (ev):

    -2.0878   2.5744   6.6157   8.4716  19.4518  24.7979  26.1531  26.6736

          k =-0.7500-0.7500-0.2500 (   602 PWs)   bands (ev):

    -2.0878   2.5744   6.6157   8.4716  19.4518  24.7979  26.1531  26.6736

          k =-1.0000-0.5000-0.5000 (   602 PWs)   bands (ev):

    -3.6412   4.6597   5.7470  10.3370  21.2964  23.3539  25.7097  27.2621

          k =-0.2500-1.2500 0.2500 (   602 PWs)   bands (ev):

    -2.0878   2.5744   6.6157   8.4716  19.4518  24.7979  26.1531  26.6736

          k =-0.5000-1.0000 0.0000 (   604 PWs)   bands (ev):

     1.3923   1.3923   5.0300   5.0300  23.9893  23.9893  25.6682  25.6682

          k =-0.5000-0.5000 0.0000 (   602 PWs)   bands (ev):

    -3.6412   4.6597   5.7470  10.3370  21.2964  23.3539  25.7097  27.2621

          k =-0.7500-0.2500-0.2500 (   602 PWs)   bands (ev):

    -2.0878   2.5744   6.6157   8.4716  19.4518  24.7979  26.1531  26.6736

          k = 0.0000-1.0000 0.5000 (   604 PWs)   bands (ev):

     1.3923   1.3923   5.0300   5.0300  23.9893  23.9893  25.6682  25.6682

          k =-0.2500-0.7500 0.2500 (   602 PWs)   bands (ev):

    -2.0878   2.5744   6.6157   8.4716  19.4518  24.7979  26.1531  26.6736

          k = 0.5000 0.5000-0.5000 (   610 PWs)   bands (ev):

    -2.3309  -0.0165  10.5473  10.5473  21.8159  21.8159  22.2204  29.0415

          k = 0.2500 0.7500-0.7500 (   602 PWs)   bands (ev):

    -2.0878   2.5744   6.6157   8.4716  19.4518  24.7979  26.1531  26.6736

          k = 1.0000 0.0000 0.0000 (   620 PWs)   bands (ev):

     0.6001   0.6001   7.0487   7.0487  18.1383  18.1383  30.1216  30.1216

          k = 0.7500 0.2500-0.2500 (   602 PWs)   bands (ev):

    -2.0878   2.5744   6.6157   8.4716  19.4518  24.7979  26.1531  26.6736

          k = 0.7500 0.7500-0.2500 (   602 PWs)   bands (ev):

    -2.0878   2.5744   6.6157   8.4716  19.4518  24.7979  26.1531  26.6736

          k = 0.5000 1.0000-0.5000 (   602 PWs)   bands (ev):

    -3.6412   4.6597   5.7470  10.3370  21.2964  23.3539  25.7097  27.2621

          k = 1.2500 0.2500 0.2500 (   602 PWs)   bands (ev):

    -2.0878   2.5744   6.6157   8.4716  19.4518  24.7979  26.1531  26.6736

          k = 1.0000 0.5000 0.0000 (   604 PWs)   bands (ev):

     1.3923   1.3923   5.0300   5.0300  23.9893  23.9893  25.6682  25.6682

          k = 0.0000 0.0000-1.0000 (   620 PWs)   bands (ev):

     0.6001   0.6001   7.0487   7.0487  18.1383  18.1383  30.1216  30.1216

          k =-0.2500 0.2500-1.2500 (   602 PWs)   bands (ev):

    -2.0878   2.5744   6.6157   8.4716  19.4518  24.7979  26.1531  26.6736

          k = 0.5000-0.5000-0.5000 (   610 PWs)   bands (ev):

    -2.3309  -0.0165  10.5473  10.5473  21.8159  21.8159  22.2204  29.0415

          k = 0.2500-0.2500-0.7500 (   602 PWs)   bands (ev):

    -2.0878   2.5744   6.6157   8.4716  19.4518  24.7979  26.1531  26.6736

          k = 0.2500 0.2500-0.7500 (   602 PWs)   bands (ev):

    -2.0878   2.5744   6.6157   8.4716  19.4518  24.7979  26.1531  26.6736

          k = 0.0000 0.5000-1.0000 (   604 PWs)   bands (ev):

     1.3923   1.3923   5.0300   5.0300  23.9893  23.9893  25.6682  25.6682

          k = 0.7500-0.2500-0.2500 (   602 PWs)   bands (ev):

    -2.0878   2.5744   6.6157   8.4716  19.4518  24.7979  26.1531  26.6736

          k = 0.5000 0.0000-0.5000 (   602 PWs)   bands (ev):

    -3.6412   4.6597   5.7470  10.3370  21.2964  23.3539  25.7097  27.2621

          k = 0.2500 0.2500-0.2500 (   595 PWs)   bands (ev):

    -6.3913   6.7659  11.6044  11.6044  21.1416  21.1416  21.5071  27.9782

          k = 0.0000 0.5000-0.5000 (   602 PWs)   bands (ev):

    -3.6412   4.6597   5.7470  10.3370  21.2964  23.3539  25.7097  27.2621

          k = 0.7500-0.2500 0.2500 (   602 PWs)   bands (ev):

    -2.0878   2.5744   6.6157   8.4716  19.4518  24.7979  26.1531  26.6736

          k = 0.5000 0.0000 0.0000 (   592 PWs)   bands (ev):

    -5.8226   8.8430   9.2291   9.2291  17.8083  23.6246  24.9329  24.9329

          k = 0.5000 0.5000 0.0000 (   602 PWs)   bands (ev):

    -3.6412   4.6597   5.7470  10.3370  21.2964  23.3539  25.7097  27.2621

          k = 0.2500 0.7500-0.2500 (   602 PWs)   bands (ev):

    -2.0878   2.5744   6.6157   8.4716  19.4518  24.7979  26.1531  26.6736

          k = 1.0000 0.0000 0.5000 (   604 PWs)   bands (ev):

     1.3923   1.3923   5.0300   5.0300  23.9893  23.9893  25.6682  25.6682

          k = 0.7500 0.2500 0.2500 (   602 PWs)   bands (ev):

    -2.0878   2.5744   6.6157   8.4716  19.4518  24.7979  26.1531  26.6736

          k =-0.2500-0.2500-0.7500 (   602 PWs)   bands (ev):

    -2.0878   2.5744   6.6157   8.4716  19.4518  24.7979  26.1531  26.6736

          k =-0.5000 0.0000-1.0000 (   604 PWs)   bands (ev):

     1.3923   1.3923   5.0300   5.0300  23.9893  23.9893  25.6682  25.6682

          k = 0.2500-0.7500-0.2500 (   602 PWs)   bands (ev):

    -2.0878   2.5744   6.6157   8.4716  19.4518  24.7979  26.1531  26.6736

          k = 0.0000-0.5000-0.5000 (   602 PWs)   bands (ev):

    -3.6412   4.6597   5.7470  10.3370  21.2964  23.3539  25.7097  27.2621

          k = 0.0000 0.0000-0.5000 (   592 PWs)   bands (ev):

    -5.8226   8.8430   9.2291   9.2291  17.8083  23.6246  24.9329  24.9329

          k =-0.2500 0.2500-0.7500 (   602 PWs)   bands (ev):

    -2.0878   2.5744   6.6157   8.4716  19.4518  24.7979  26.1531  26.6736

          k = 0.5000-0.5000 0.0000 (   602 PWs)   bands (ev):

    -3.6412   4.6597   5.7470  10.3370  21.2964  23.3539  25.7097  27.2621

          k = 0.2500-0.2500-0.2500 (   595 PWs)   bands (ev):

    -6.3913   6.7659  11.6044  11.6044  21.1416  21.1416  21.5071  27.9782

     highest occupied, lowest unoccupied level (ev):    13.3446   17.8083

!    total energy              =     -22.77394626 Ry
     Harris-Foulkes estimate   =     -22.77394626 Ry
     estimated scf accuracy    <          2.4E-21 Ry

     The total energy is the sum of the following terms:

     one-electron contribution =       7.96834239 Ry
     hartree contribution      =       1.95346781 Ry
     xc contribution           =      -7.12293221 Ry
     ewald contribution        =     -25.57282425 Ry

     convergence has been achieved in  15 iterations

     Writing output data file c.save
 
     init_run     :      0.16s CPU      0.17s WALL (       1 calls)
     electrons    :      8.11s CPU      8.28s WALL (       1 calls)

     Called by init_run:
     wfcinit      :      0.15s CPU      0.16s WALL (       1 calls)
     potinit      :      0.00s CPU      0.00s WALL (       1 calls)

     Called by electrons:
     c_bands      :      7.90s CPU      8.04s WALL (      15 calls)
     sum_band     :      0.20s CPU      0.21s WALL (      15 calls)
     v_of_rho     :      0.01s CPU      0.01s WALL (      16 calls)
     mix_rho      :      0.00s CPU      0.01s WALL (      15 calls)

     Called by c_bands:
     init_us_2    :      0.02s CPU      0.02s WALL (    1984 calls)
     cegterg      :      7.83s CPU      7.97s WALL (     960 calls)

     Called by sum_band:

     Called by *egterg:
     h_psi        :      1.28s CPU      1.32s WALL (    3070 calls)
     g_psi        :      0.00s CPU      0.00s WALL (    2046 calls)
     cdiaghg      :      4.37s CPU      4.43s WALL (    3006 calls)

     Called by h_psi:
     h_psi:pot    :      1.28s CPU      1.31s WALL (    3070 calls)
     h_psi:calbec :      0.07s CPU      0.07s WALL (    3070 calls)
     vloc_psi     :      1.18s CPU      1.21s WALL (    3070 calls)
     add_vuspsi   :      0.02s CPU      0.02s WALL (    3070 calls)

     General routines
     calbec       :      0.06s CPU      0.06s WALL (    3070 calls)
     fft          :      0.01s CPU      0.01s WALL (     175 calls)
     fftw         :      1.28s CPU      1.32s WALL (   49150 calls)
 
     Parallel routines
     fft_scatter  :      1.05s CPU      1.08s WALL (   49325 calls)
 
     PWSCF        :     8.54s CPU         9.01s WALL

 
   This run was terminated on:  19:24:24  11Jan2021            

=------------------------------------------------------------------------------=
   JOB DONE.
=------------------------------------------------------------------------------=
